# vtk DataFile Version 2.0
VTK from Matlab
ASCII
DATASET STRUCTURED_POINTS
DIMENSIONS 140 68 44
SPACING 1 1 1
ORIGIN 0 0 0
POINT_DATA 418880
SCALARS mag float 1
LOOKUP_TABLE default
0.00 0.00 0.00 0.00 0.00 0.00 0.00 0.00 0.00 0.00 0.00 0.00 0.00 0.00 0.00 0.00 0.00 0.00 0.00 0.00 0.00 0.00 0.00 0.00 0.00 0.00 0.00 0.00 0.00 0.00 0.00 0.00 0.00 0.00 0.00 0.00 0.00 0.00 0.00 0.00 0.00 0.00 0.00 0.00 0.00 0.00 0.00 0.00 0.00 0.00 0.00 0.00 0.00 0.00 0.00 0.00 0.00 0.00 0.00 0.00 0.00 0.00 0.00 0.00 0.00 0.00 0.00 0.00 0.00 0.00 0.00 0.00 0.00 0.00 0.00 0.00 0.00 0.00 0.00 0.00 0.00 0.00 0.00 0.00 0.00 0.00 0.00 0.00 0.00 0.00 0.00 0.00 0.00 0.00 0.00 0.00 0.00 0.00 0.00 0.00 0.00 0.00 0.00 0.00 0.00 0.00 0.00 0.00 0.00 0.00 0.00 0.00 0.00 0.00 0.00 0.00 0.00 0.00 0.00 0.00 0.00 0.00 0.00 0.00 0.00 0.00 0.00 0.00 0.00 0.00 0.00 0.00 0.00 0.00 0.00 0.00 0.00 0.00 0.00 0.00 0.00 0.00 1.00 1.00 0.00 0.00 0.00 0.00 0.00 0.00 0.00 0.00 0.00 0.00 0.00 0.00 0.00 0.00 0.00 0.00 0.00 0.00 0.00 0.00 0.00 0.00 0.00 0.00 0.00 0.00 0.00 0.00 0.00 0.00 0.00 0.00 0.00 0.00 0.00 0.00 0.00 0.00 0.00 0.00 0.00 0.00 0.00 0.00 0.00 0.00 0.00 0.00 0.00 0.00 0.00 0.00 0.00 0.00 0.00 0.00 0.00 0.00 0.00 0.00 0.00 0.00 0.00 0.00 0.00 0.00 0.00 0.00 0.00 0.00 0.00 0.00 0.00 0.00 0.00 0.00 0.00 0.00 0.00 0.00 0.00 0.00 0.00 0.00 0.00 0.00 0.00 0.00 0.00 0.00 0.00 0.00 0.00 0.00 0.00 0.00 0.00 0.00 0.00 0.00 0.00 0.00 0.00 0.00 0.00 0.00 0.00 0.00 0.00 0.00 0.00 0.00 0.00 0.00 0.00 0.00 0.00 0.00 0.00 0.00 0.00 0.00 0.00 0.00 0.00 0.00 0.00 0.00 0.00 0.00 0.00 0.00 0.00 0.00 0.00 0.00 0.00 1.00 1.00 1.00 1.00 1.00 0.00 0.00 0.00 0.00 0.00 0.00 0.00 0.00 0.00 0.00 0.00 0.00 0.00 0.00 0.00 0.00 0.00 0.00 0.00 0.00 0.00 0.00 0.00 0.00 0.00 0.00 0.00 0.00 0.00 0.00 0.00 0.00 0.00 0.00 0.00 0.00 0.00 0.00 0.00 0.00 0.00 0.00 0.00 0.00 0.00 0.00 0.00 0.00 0.00 0.00 0.00 0.00 0.00 0.00 0.00 0.00 0.00 0.00 0.00 0.00 0.00 0.00 0.00 0.00 0.00 0.00 0.00 0.00 0.00 0.00 0.00 0.00 0.00 0.00 0.00 0.00 0.00 0.00 0.00 0.00 0.00 0.00 0.00 0.00 0.00 0.00 0.00 0.00 0.00 0.00 0.00 0.00 0.00 0.00 0.00 0.00 0.00 0.00 0.00 0.00 0.00 0.00 0.00 0.00 0.00 0.00 0.00 0.00 0.00 0.00 0.00 0.00 0.00 0.00 0.00 0.00 0.00 0.00 0.00 0.00 0.00 0.00 0.00 0.00 0.00 0.00 0.00 0.00 0.00 0.00 0.00 0.00 0.00 0.00 1.00 1.00 1.00 1.00 1.00 1.00 0.00 0.00 0.00 0.00 0.00 0.00 0.00 0.00 0.00 0.00 0.00 0.00 0.00 0.00 0.00 0.00 0.00 0.00 0.00 0.00 0.00 0.00 0.00 0.00 0.00 0.00 0.00 0.00 0.00 0.00 0.00 0.00 0.00 0.00 0.00 0.00 0.00 0.00 0.00 0.00 0.00 0.00 0.00 0.00 0.00 0.00 0.00 0.00 0.00 0.00 0.00 0.00 0.00 0.00 0.00 0.00 0.00 0.00 0.00 0.00 0.00 0.00 0.00 0.00 0.00 0.00 0.00 0.00 0.00 0.00 0.00 0.00 0.00 0.00 0.00 0.00 0.00 0.00 0.00 0.00 0.00 0.00 0.00 0.00 0.00 0.00 0.00 0.00 0.00 0.00 0.00 0.00 0.00 0.00 0.00 0.00 0.00 0.00 0.00 0.00 0.00 0.00 0.00 0.00 0.00 0.00 0.00 0.00 0.00 0.00 0.00 0.00 0.00 0.00 0.00 0.00 0.00 0.00 0.00 0.00 0.00 0.00 0.00 0.00 0.00 0.00 0.00 0.00 0.00 0.00 0.00 0.00 0.00 0.00 2.00 1.00 1.00 1.00 1.00 1.00 0.00 0.00 0.00 0.00 0.00 0.00 0.00 0.00 0.00 0.00 0.00 0.00 0.00 0.00 0.00 0.00 0.00 0.00 0.00 0.00 0.00 0.00 0.00 0.00 0.00 0.00 0.00 0.00 0.00 0.00 0.00 0.00 0.00 0.00 0.00 0.00 0.00 0.00 0.00 0.00 0.00 0.00 0.00 0.00 0.00 0.00 0.00 0.00 0.00 0.00 0.00 0.00 0.00 0.00 0.00 0.00 0.00 0.00 0.00 0.00 0.00 0.00 1.00 0.00 0.00 0.00 0.00 0.00 0.00 0.00 0.00 0.00 0.00 0.00 0.00 0.00 0.00 0.00 0.00 0.00 0.00 0.00 0.00 0.00 0.00 0.00 0.00 0.00 0.00 0.00 0.00 0.00 0.00 0.00 0.00 0.00 0.00 0.00 0.00 0.00 0.00 0.00 0.00 0.00 0.00 0.00 0.00 0.00 0.00 0.00 0.00 0.00 0.00 0.00 0.00 0.00 0.00 0.00 0.00 0.00 0.00 0.00 0.00 0.00 0.00 0.00 0.00 0.00 0.00 0.00 0.00 0.00 0.00 0.00 1.00 1.00 1.00 1.00 1.00 1.00 0.00 0.00 0.00 0.00 0.00 0.00 0.00 0.00 0.00 0.00 0.00 0.00 0.00 0.00 0.00 0.00 0.00 0.00 0.00 0.00 0.00 0.00 0.00 0.00 0.00 0.00 0.00 0.00 0.00 0.00 0.00 0.00 0.00 0.00 0.00 0.00 0.00 0.00 0.00 0.00 0.00 0.00 0.00 0.00 0.00 0.00 0.00 0.00 0.00 0.00 0.00 0.00 0.00 0.00 0.00 0.00 0.00 0.00 0.00 0.00 0.00 0.00 1.00 0.00 0.00 0.00 0.00 0.00 0.00 0.00 0.00 0.00 0.00 0.00 0.00 0.00 0.00 0.00 0.00 0.00 0.00 0.00 0.00 0.00 0.00 0.00 0.00 0.00 0.00 0.00 0.00 0.00 0.00 0.00 0.00 0.00 0.00 0.00 0.00 0.00 0.00 0.00 0.00 0.00 0.00 0.00 0.00 0.00 0.00 0.00 0.00 0.00 0.00 0.00 0.00 0.00 0.00 0.00 0.00 0.00 0.00 0.00 0.00 0.00 0.00 0.00 0.00 0.00 0.00 0.00 0.00 0.00 0.00 0.00 1.00 1.00 1.00 1.00 1.00 1.00 0.00 0.00 0.00 0.00 0.00 0.00 0.00 0.00 0.00 0.00 0.00 0.00 0.00 0.00 0.00 0.00 0.00 0.00 0.00 0.00 0.00 0.00 0.00 0.00 0.00 0.00 0.00 0.00 0.00 1.00 0.00 0.00 0.00 0.00 0.00 0.00 0.00 0.00 0.00 0.00 0.00 0.00 0.00 0.00 0.00 0.00 0.00 0.00 0.00 0.00 0.00 0.00 0.00 0.00 0.00 0.00 0.00 0.00 0.00 0.00 0.00 0.00 0.00 0.00 0.00 0.00 0.00 0.00 0.00 0.00 0.00 0.00 0.00 0.00 0.00 0.00 0.00 0.00 0.00 0.00 0.00 0.00 0.00 0.00 0.00 0.00 0.00 0.00 0.00 0.00 0.00 0.00 0.00 0.00 0.00 0.00 0.00 0.00 0.00 0.00 0.00 0.00 0.00 0.00 0.00 0.00 0.00 0.00 0.00 0.00 0.00 0.00 0.00 0.00 0.00 0.00 0.00 0.00 0.00 0.00 0.00 0.00 0.00 0.00 0.00 0.00 0.00 0.00 0.00 0.00 0.00 0.00 0.00 0.00 1.00 1.00 1.00 1.00 1.00 1.00 0.00 0.00 0.00 0.00 0.00 0.00 0.00 0.00 0.00 0.00 0.00 0.00 0.00 0.00 0.00 0.00 0.00 0.00 0.00 0.00 0.00 0.00 0.00 0.00 0.00 0.00 0.00 0.00 0.00 0.00 0.00 0.00 0.00 0.00 0.00 0.00 0.00 0.00 0.00 0.00 0.00 0.00 0.00 0.00 0.00 0.00 0.00 0.00 0.00 0.00 0.00 0.00 0.00 0.00 0.00 0.00 0.00 0.00 0.00 0.00 0.00 0.00 0.00 0.00 0.00 0.00 0.00 0.00 0.00 0.00 0.00 0.00 0.00 0.00 0.00 0.00 0.00 0.00 0.00 0.00 0.00 0.00 0.00 0.00 0.00 0.00 0.00 0.00 0.00 0.00 0.00 0.00 0.00 0.00 0.00 0.00 0.00 0.00 0.00 0.00 0.00 0.00 0.00 0.00 0.00 0.00 0.00 0.00 0.00 0.00 0.00 0.00 0.00 0.00 0.00 0.00 0.00 0.00 0.00 0.00 0.00 0.00 0.00 0.00 0.00 0.00 0.00 0.00 0.00 0.00 0.00 0.00 0.00 0.00 1.00 1.00 1.00 1.00 1.00 0.00 0.00 0.00 0.00 0.00 0.00 0.00 0.00 0.00 0.00 0.00 0.00 0.00 0.00 0.00 0.00 0.00 0.00 0.00 0.00 0.00 0.00 1.00 1.00 0.00 0.00 0.00 0.00 0.00 0.00 0.00 0.00 0.00 0.00 0.00 0.00 0.00 0.00 0.00 0.00 0.00 0.00 0.00 0.00 0.00 0.00 0.00 0.00 0.00 0.00 0.00 0.00 0.00 0.00 0.00 0.00 0.00 0.00 0.00 0.00 0.00 0.00 0.00 0.00 0.00 0.00 0.00 0.00 0.00 0.00 0.00 0.00 0.00 0.00 0.00 0.00 0.00 0.00 0.00 0.00 0.00 0.00 0.00 0.00 0.00 0.00 0.00 0.00 0.00 0.00 0.00 0.00 0.00 0.00 0.00 0.00 0.00 0.00 0.00 0.00 0.00 0.00 0.00 0.00 0.00 0.00 0.00 0.00 0.00 0.00 0.00 0.00 0.00 0.00 0.00 0.00 0.00 0.00 0.00 0.00 0.00 0.00 0.00 0.00 0.00 0.00 0.00 0.00 0.00 0.00 0.00 0.00 0.00 0.00 0.00 2.00 2.00 1.00 1.00 1.00 0.00 0.00 0.00 0.00 0.00 0.00 0.00 0.00 0.00 0.00 0.00 0.00 0.00 0.00 0.00 0.00 0.00 0.00 0.00 0.00 0.00 0.00 1.00 1.00 0.00 0.00 0.00 0.00 0.00 0.00 0.00 0.00 0.00 0.00 0.00 0.00 0.00 0.00 0.00 0.00 0.00 0.00 0.00 0.00 0.00 0.00 0.00 0.00 0.00 0.00 0.00 0.00 0.00 0.00 0.00 0.00 0.00 0.00 0.00 0.00 0.00 0.00 0.00 0.00 0.00 0.00 0.00 0.00 0.00 0.00 0.00 0.00 0.00 0.00 0.00 0.00 0.00 0.00 0.00 0.00 0.00 0.00 0.00 0.00 0.00 0.00 0.00 0.00 0.00 0.00 0.00 0.00 0.00 0.00 0.00 0.00 0.00 0.00 0.00 0.00 0.00 0.00 0.00 0.00 0.00 0.00 0.00 0.00 0.00 0.00 0.00 0.00 0.00 0.00 0.00 0.00 0.00 0.00 0.00 0.00 0.00 0.00 0.00 0.00 0.00 0.00 0.00 0.00 0.00 0.00 0.00 0.00 0.00 0.00 0.00 11.00 4.00 2.00 1.00 1.00 1.00 0.00 0.00 0.00 0.00 0.00 0.00 0.00 0.00 0.00 0.00 0.00 0.00 0.00 0.00 0.00 0.00 0.00 0.00 0.00 0.00 0.00 0.00 1.00 0.00 0.00 0.00 0.00 0.00 0.00 0.00 0.00 0.00 0.00 0.00 0.00 0.00 0.00 0.00 0.00 0.00 0.00 0.00 0.00 0.00 0.00 0.00 0.00 0.00 0.00 0.00 0.00 0.00 0.00 0.00 0.00 0.00 0.00 0.00 0.00 0.00 0.00 0.00 0.00 0.00 0.00 0.00 0.00 0.00 0.00 0.00 0.00 0.00 0.00 0.00 0.00 0.00 0.00 0.00 0.00 0.00 0.00 0.00 0.00 0.00 0.00 0.00 0.00 0.00 0.00 0.00 0.00 0.00 0.00 0.00 0.00 0.00 0.00 0.00 0.00 0.00 0.00 0.00 0.00 0.00 0.00 0.00 0.00 0.00 0.00 0.00 0.00 0.00 0.00 0.00 0.00 0.00 0.00 0.00 0.00 0.00 0.00 0.00 0.00 0.00 0.00 0.00 0.00 0.00 0.00 0.00 0.00 0.00 0.00 0.00 30.00 13.00 6.00 2.00 1.00 1.00 0.00 0.00 0.00 1.00 1.00 0.00 0.00 0.00 0.00 0.00 0.00 0.00 0.00 0.00 0.00 0.00 0.00 0.00 0.00 0.00 0.00 0.00 1.00 0.00 0.00 0.00 0.00 0.00 0.00 1.00 0.00 0.00 0.00 0.00 0.00 0.00 0.00 0.00 0.00 0.00 0.00 0.00 0.00 0.00 0.00 0.00 0.00 0.00 0.00 0.00 0.00 0.00 0.00 0.00 0.00 0.00 0.00 0.00 0.00 0.00 0.00 0.00 0.00 0.00 0.00 0.00 0.00 0.00 0.00 0.00 0.00 0.00 0.00 0.00 0.00 0.00 0.00 0.00 0.00 0.00 0.00 0.00 0.00 0.00 0.00 0.00 0.00 0.00 0.00 0.00 0.00 0.00 0.00 0.00 0.00 0.00 0.00 0.00 0.00 0.00 0.00 0.00 0.00 0.00 0.00 0.00 0.00 0.00 0.00 0.00 0.00 0.00 0.00 0.00 0.00 0.00 0.00 0.00 0.00 0.00 0.00 0.00 0.00 0.00 0.00 0.00 0.00 0.00 0.00 0.00 0.00 0.00 0.00 0.00 47.00 29.00 18.00 7.00 2.00 2.00 3.00 1.00 0.00 2.00 1.00 0.00 0.00 0.00 0.00 0.00 0.00 0.00 0.00 0.00 0.00 0.00 0.00 0.00 0.00 0.00 0.00 0.00 1.00 0.00 0.00 0.00 0.00 0.00 0.00 0.00 0.00 0.00 0.00 0.00 0.00 0.00 0.00 0.00 0.00 0.00 0.00 0.00 0.00 0.00 0.00 0.00 0.00 0.00 0.00 0.00 0.00 0.00 0.00 0.00 0.00 0.00 0.00 0.00 0.00 0.00 0.00 0.00 0.00 0.00 0.00 0.00 0.00 0.00 0.00 0.00 0.00 0.00 0.00 0.00 0.00 0.00 0.00 0.00 0.00 0.00 0.00 0.00 0.00 0.00 0.00 0.00 0.00 0.00 0.00 0.00 0.00 0.00 0.00 0.00 0.00 0.00 0.00 0.00 0.00 0.00 0.00 0.00 0.00 0.00 0.00 0.00 0.00 0.00 0.00 0.00 0.00 0.00 0.00 0.00 0.00 0.00 0.00 0.00 0.00 0.00 0.00 0.00 0.00 0.00 0.00 0.00 0.00 0.00 0.00 0.00 0.00 0.00 0.00 0.00 50.00 34.00 28.00 22.00 14.00 7.00 3.00 3.00 5.00 4.00 1.00 1.00 1.00 1.00 0.00 0.00 0.00 0.00 0.00 0.00 0.00 0.00 0.00 0.00 0.00 0.00 0.00 0.00 0.00 0.00 0.00 0.00 0.00 0.00 0.00 1.00 0.00 0.00 0.00 0.00 0.00 0.00 0.00 0.00 0.00 0.00 0.00 0.00 0.00 0.00 0.00 0.00 0.00 0.00 0.00 0.00 0.00 0.00 0.00 0.00 0.00 0.00 0.00 0.00 0.00 0.00 0.00 0.00 0.00 0.00 0.00 0.00 0.00 0.00 0.00 0.00 0.00 0.00 0.00 0.00 0.00 0.00 0.00 0.00 0.00 0.00 0.00 0.00 0.00 0.00 0.00 0.00 0.00 0.00 0.00 0.00 0.00 0.00 0.00 0.00 0.00 0.00 0.00 0.00 0.00 0.00 0.00 0.00 0.00 0.00 0.00 0.00 0.00 0.00 0.00 0.00 0.00 0.00 0.00 0.00 0.00 0.00 0.00 0.00 0.00 0.00 0.00 0.00 0.00 0.00 0.00 0.00 0.00 0.00 0.00 0.00 0.00 0.00 0.00 0.00 62.00 58.00 36.00 26.00 21.00 27.00 33.00 21.00 15.00 3.00 0.00 0.00 2.00 3.00 2.00 1.00 1.00 0.00 0.00 0.00 0.00 0.00 0.00 0.00 0.00 0.00 0.00 1.00 1.00 0.00 0.00 1.00 0.00 0.00 0.00 1.00 1.00 0.00 0.00 0.00 0.00 0.00 0.00 0.00 0.00 0.00 0.00 0.00 0.00 0.00 0.00 0.00 0.00 0.00 0.00 0.00 0.00 0.00 0.00 0.00 0.00 0.00 0.00 0.00 0.00 0.00 0.00 0.00 0.00 0.00 0.00 0.00 0.00 0.00 0.00 0.00 0.00 0.00 0.00 0.00 0.00 0.00 0.00 0.00 0.00 0.00 0.00 0.00 0.00 0.00 0.00 0.00 0.00 0.00 0.00 0.00 0.00 0.00 0.00 0.00 0.00 0.00 0.00 0.00 0.00 0.00 0.00 0.00 0.00 0.00 0.00 0.00 0.00 0.00 0.00 0.00 0.00 0.00 0.00 0.00 0.00 0.00 0.00 0.00 0.00 0.00 0.00 0.00 0.00 0.00 0.00 0.00 0.00 0.00 0.00 0.00 0.00 0.00 0.00 0.00 36.00 49.00 60.00 49.00 34.00 35.00 47.00 53.00 47.00 29.00 20.00 12.00 11.00 10.00 5.00 2.00 2.00 2.00 1.00 1.00 0.00 0.00 0.00 0.00 0.00 0.00 0.00 1.00 1.00 0.00 1.00 1.00 1.00 1.00 1.00 1.00 1.00 1.00 1.00 0.00 0.00 0.00 1.00 1.00 1.00 1.00 1.00 0.00 1.00 1.00 1.00 1.00 0.00 0.00 0.00 0.00 0.00 0.00 0.00 0.00 0.00 0.00 0.00 0.00 0.00 0.00 0.00 0.00 0.00 0.00 0.00 0.00 0.00 0.00 0.00 0.00 0.00 0.00 0.00 0.00 0.00 0.00 0.00 0.00 0.00 0.00 0.00 0.00 0.00 0.00 0.00 0.00 0.00 0.00 0.00 0.00 0.00 0.00 0.00 0.00 0.00 0.00 0.00 0.00 0.00 0.00 0.00 0.00 0.00 0.00 0.00 0.00 0.00 0.00 0.00 0.00 0.00 0.00 0.00 0.00 0.00 0.00 0.00 0.00 0.00 0.00 0.00 0.00 0.00 0.00 0.00 0.00 0.00 0.00 0.00 0.00 0.00 0.00 0.00 0.00 46.00 43.00 57.00 67.00 68.00 54.00 51.00 78.00 73.00 60.00 43.00 33.00 31.00 28.00 21.00 13.00 9.00 9.00 4.00 3.00 1.00 1.00 1.00 1.00 0.00 1.00 0.00 0.00 0.00 1.00 1.00 1.00 1.00 0.00 1.00 2.00 1.00 1.00 0.00 0.00 1.00 1.00 1.00 1.00 1.00 1.00 1.00 1.00 1.00 1.00 1.00 1.00 1.00 0.00 1.00 1.00 1.00 0.00 1.00 0.00 0.00 0.00 0.00 0.00 0.00 0.00 0.00 0.00 0.00 0.00 0.00 0.00 0.00 0.00 0.00 0.00 0.00 0.00 0.00 0.00 0.00 0.00 0.00 0.00 0.00 0.00 0.00 0.00 0.00 0.00 0.00 0.00 0.00 0.00 0.00 0.00 0.00 0.00 0.00 0.00 0.00 0.00 0.00 0.00 0.00 0.00 0.00 0.00 0.00 0.00 0.00 0.00 0.00 0.00 0.00 0.00 0.00 0.00 0.00 0.00 0.00 0.00 0.00 0.00 0.00 0.00 0.00 0.00 0.00 0.00 0.00 0.00 0.00 0.00 0.00 0.00 0.00 0.00 0.00 0.00 84.00 68.00 43.00 59.00 88.00 87.00 80.00 92.00 70.00 63.00 44.00 46.00 56.00 61.00 56.00 44.00 34.00 25.00 17.00 14.00 4.00 3.00 2.00 1.00 1.00 1.00 1.00 0.00 1.00 1.00 1.00 1.00 0.00 0.00 1.00 2.00 2.00 2.00 2.00 2.00 2.00 1.00 1.00 1.00 2.00 2.00 1.00 1.00 1.00 1.00 1.00 1.00 1.00 1.00 1.00 1.00 0.00 0.00 1.00 0.00 0.00 0.00 0.00 1.00 0.00 0.00 0.00 0.00 0.00 0.00 0.00 0.00 0.00 0.00 0.00 0.00 0.00 0.00 0.00 0.00 0.00 0.00 0.00 0.00 0.00 0.00 0.00 0.00 0.00 0.00 0.00 0.00 0.00 0.00 0.00 0.00 0.00 0.00 0.00 0.00 0.00 0.00 0.00 0.00 0.00 0.00 0.00 0.00 0.00 0.00 0.00 0.00 0.00 0.00 0.00 0.00 0.00 0.00 0.00 0.00 0.00 0.00 0.00 0.00 0.00 0.00 0.00 0.00 0.00 0.00 0.00 0.00 0.00 0.00 0.00 0.00 0.00 0.00 0.00 0.00 88.00 100.00 80.00 52.00 48.00 66.00 93.00 114.00 112.00 118.00 114.00 99.00 91.00 85.00 70.00 49.00 38.00 41.00 37.00 41.00 28.00 18.00 13.00 11.00 6.00 2.00 2.00 2.00 3.00 4.00 3.00 2.00 1.00 1.00 1.00 1.00 1.00 1.00 0.00 1.00 1.00 1.00 1.00 1.00 2.00 2.00 2.00 2.00 2.00 2.00 2.00 1.00 2.00 2.00 1.00 2.00 1.00 1.00 1.00 1.00 0.00 1.00 3.00 4.00 2.00 1.00 2.00 2.00 2.00 3.00 2.00 0.00 1.00 1.00 2.00 3.00 1.00 1.00 1.00 1.00 1.00 1.00 1.00 0.00 1.00 0.00 0.00 0.00 0.00 0.00 0.00 0.00 0.00 0.00 0.00 0.00 0.00 0.00 0.00 0.00 0.00 0.00 0.00 0.00 0.00 0.00 0.00 0.00 0.00 0.00 0.00 0.00 0.00 0.00 0.00 0.00 0.00 0.00 0.00 0.00 0.00 0.00 0.00 0.00 0.00 0.00 0.00 0.00 0.00 0.00 0.00 0.00 0.00 0.00 0.00 0.00 0.00 0.00 0.00 0.00 66.00 96.00 106.00 79.00 41.00 47.00 85.00 105.00 112.00 117.00 121.00 123.00 130.00 135.00 131.00 117.00 94.00 73.00 60.00 38.00 38.00 31.00 33.00 41.00 37.00 29.00 22.00 14.00 8.00 4.00 3.00 3.00 4.00 6.00 8.00 9.00 4.00 2.00 2.00 2.00 3.00 2.00 2.00 2.00 3.00 3.00 2.00 3.00 4.00 4.00 3.00 4.00 4.00 6.00 8.00 9.00 12.00 13.00 13.00 4.00 5.00 8.00 8.00 10.00 6.00 2.00 1.00 3.00 5.00 6.00 4.00 0.00 3.00 4.00 4.00 4.00 3.00 2.00 1.00 1.00 2.00 2.00 2.00 3.00 3.00 2.00 1.00 1.00 1.00 0.00 0.00 1.00 0.00 0.00 1.00 1.00 0.00 0.00 0.00 0.00 0.00 0.00 0.00 0.00 0.00 0.00 0.00 1.00 1.00 1.00 0.00 0.00 0.00 0.00 0.00 0.00 0.00 0.00 0.00 0.00 0.00 0.00 0.00 0.00 0.00 0.00 0.00 0.00 0.00 0.00 0.00 0.00 0.00 0.00 0.00 0.00 0.00 0.00 0.00 0.00 57.00 90.00 105.00 93.00 55.00 35.00 51.00 75.00 88.00 93.00 101.00 108.00 123.00 133.00 140.00 148.00 147.00 135.00 131.00 99.00 87.00 86.00 70.00 65.00 52.00 47.00 49.00 48.00 43.00 32.00 24.00 23.00 20.00 14.00 12.00 11.00 5.00 2.00 4.00 3.00 5.00 6.00 5.00 4.00 3.00 3.00 4.00 8.00 9.00 10.00 11.00 10.00 11.00 18.00 25.00 27.00 26.00 37.00 48.00 49.00 41.00 30.00 31.00 25.00 44.00 51.00 50.00 63.00 54.00 64.00 58.00 46.00 44.00 47.00 50.00 37.00 31.00 14.00 8.00 5.00 3.00 2.00 3.00 3.00 3.00 3.00 1.00 1.00 1.00 2.00 2.00 2.00 1.00 1.00 1.00 1.00 1.00 1.00 0.00 0.00 1.00 0.00 1.00 0.00 1.00 1.00 1.00 1.00 2.00 2.00 1.00 1.00 1.00 0.00 0.00 1.00 1.00 1.00 0.00 1.00 1.00 0.00 1.00 0.00 0.00 0.00 0.00 0.00 0.00 0.00 0.00 0.00 0.00 0.00 0.00 0.00 0.00 0.00 0.00 0.00 49.00 89.00 97.00 102.00 72.00 35.00 36.00 67.00 80.00 96.00 102.00 106.00 112.00 117.00 123.00 132.00 136.00 134.00 148.00 120.00 132.00 146.00 135.00 127.00 118.00 104.00 89.00 75.00 71.00 76.00 71.00 56.00 40.00 37.00 41.00 38.00 40.00 40.00 33.00 27.00 18.00 14.00 14.00 10.00 12.00 7.00 23.00 16.00 18.00 29.00 30.00 31.00 25.00 40.00 41.00 39.00 42.00 53.00 55.00 34.00 49.00 71.00 77.00 44.00 41.00 81.00 78.00 74.00 46.00 42.00 53.00 54.00 51.00 51.00 60.00 61.00 70.00 63.00 62.00 55.00 42.00 32.00 20.00 10.00 5.00 4.00 3.00 2.00 2.00 3.00 3.00 2.00 1.00 1.00 1.00 1.00 1.00 0.00 0.00 0.00 0.00 0.00 0.00 0.00 1.00 0.00 1.00 1.00 1.00 2.00 2.00 1.00 1.00 1.00 1.00 1.00 1.00 1.00 1.00 0.00 0.00 0.00 0.00 0.00 0.00 0.00 0.00 0.00 0.00 0.00 0.00 0.00 0.00 0.00 0.00 0.00 0.00 0.00 0.00 0.00 51.00 87.00 91.00 106.00 83.00 41.00 36.00 72.00 95.00 118.00 120.00 114.00 108.00 108.00 113.00 119.00 119.00 118.00 124.00 101.00 127.00 145.00 148.00 153.00 155.00 153.00 143.00 130.00 130.00 137.00 126.00 104.00 92.00 82.00 90.00 107.00 74.00 51.00 17.00 24.00 42.00 43.00 24.00 23.00 34.00 15.00 38.00 20.00 23.00 29.00 24.00 49.00 51.00 62.00 74.00 104.00 125.00 127.00 166.00 165.00 112.00 112.00 79.00 106.00 185.00 207.00 189.00 174.00 189.00 187.00 175.00 159.00 150.00 137.00 125.00 94.00 80.00 68.00 74.00 66.00 48.00 48.00 46.00 37.00 16.00 7.00 6.00 7.00 3.00 2.00 1.00 1.00 1.00 1.00 1.00 1.00 0.00 0.00 0.00 0.00 0.00 0.00 1.00 0.00 1.00 1.00 1.00 1.00 1.00 1.00 1.00 1.00 1.00 1.00 1.00 1.00 0.00 0.00 1.00 1.00 1.00 1.00 1.00 0.00 0.00 0.00 0.00 0.00 0.00 0.00 1.00 1.00 0.00 0.00 0.00 0.00 0.00 0.00 0.00 0.00 64.00 83.00 87.00 108.00 91.00 48.00 38.00 69.00 100.00 129.00 129.00 120.00 112.00 111.00 117.00 121.00 116.00 112.00 107.00 86.00 121.00 136.00 141.00 140.00 141.00 155.00 157.00 150.00 153.00 166.00 167.00 157.00 162.00 159.00 135.00 144.00 82.00 44.00 27.00 52.00 70.00 69.00 87.00 82.00 93.00 54.00 65.00 59.00 46.00 76.00 107.00 125.00 129.00 178.00 191.00 186.00 200.00 231.00 217.00 171.00 114.00 82.00 122.00 208.00 251.00 234.00 225.00 226.00 231.00 228.00 226.00 221.00 223.00 211.00 214.00 212.00 217.00 172.00 139.00 96.00 77.00 70.00 60.00 50.00 57.00 21.00 20.00 9.00 6.00 5.00 4.00 3.00 1.00 2.00 2.00 1.00 1.00 2.00 3.00 3.00 2.00 1.00 1.00 1.00 1.00 1.00 1.00 1.00 2.00 1.00 1.00 1.00 1.00 1.00 1.00 1.00 1.00 1.00 1.00 1.00 1.00 1.00 1.00 1.00 1.00 1.00 1.00 1.00 0.00 0.00 1.00 1.00 1.00 0.00 1.00 1.00 1.00 1.00 1.00 0.00 72.00 81.00 87.00 112.00 101.00 58.00 38.00 58.00 89.00 125.00 127.00 123.00 117.00 116.00 124.00 126.00 118.00 108.00 97.00 75.00 111.00 115.00 115.00 107.00 122.00 148.00 150.00 142.00 147.00 160.00 161.00 151.00 163.00 177.00 154.00 136.00 85.00 44.00 47.00 65.00 84.00 102.00 115.00 106.00 133.00 145.00 164.00 164.00 164.00 184.00 191.00 197.00 206.00 221.00 218.00 213.00 226.00 223.00 181.00 138.00 79.00 146.00 201.00 221.00 210.00 206.00 211.00 223.00 226.00 223.00 220.00 214.00 207.00 221.00 238.00 228.00 202.00 134.00 100.00 96.00 87.00 78.00 62.00 55.00 63.00 23.00 26.00 43.00 58.00 63.00 52.00 18.00 15.00 8.00 12.00 7.00 6.00 9.00 12.00 7.00 4.00 2.00 2.00 1.00 1.00 1.00 1.00 2.00 1.00 1.00 1.00 1.00 1.00 1.00 1.00 1.00 1.00 1.00 1.00 1.00 1.00 1.00 1.00 1.00 1.00 1.00 1.00 1.00 0.00 1.00 1.00 1.00 1.00 0.00 0.00 1.00 1.00 1.00 0.00 0.00 78.00 81.00 92.00 120.00 112.00 67.00 38.00 57.00 91.00 124.00 127.00 122.00 115.00 115.00 123.00 125.00 118.00 101.00 78.00 58.00 83.00 88.00 95.00 96.00 121.00 150.00 149.00 144.00 148.00 152.00 153.00 147.00 148.00 156.00 160.00 160.00 141.00 100.00 66.00 71.00 78.00 95.00 104.00 105.00 132.00 170.00 217.00 212.00 217.00 219.00 219.00 220.00 216.00 198.00 193.00 210.00 230.00 216.00 178.00 145.00 196.00 221.00 207.00 196.00 189.00 198.00 207.00 207.00 211.00 214.00 220.00 214.00 199.00 198.00 160.00 134.00 116.00 103.00 78.00 71.00 95.00 116.00 128.00 90.00 108.00 60.00 47.00 76.00 59.00 67.00 58.00 40.00 29.00 20.00 14.00 10.00 7.00 8.00 8.00 5.00 4.00 2.00 3.00 2.00 4.00 3.00 3.00 2.00 2.00 1.00 2.00 1.00 1.00 1.00 1.00 1.00 1.00 1.00 1.00 1.00 1.00 2.00 1.00 1.00 1.00 1.00 1.00 1.00 0.00 0.00 1.00 1.00 1.00 0.00 0.00 0.00 0.00 0.00 0.00 0.00 82.00 81.00 95.00 126.00 123.00 75.00 38.00 60.00 99.00 127.00 128.00 119.00 110.00 110.00 117.00 121.00 117.00 101.00 78.00 68.00 88.00 106.00 122.00 127.00 140.00 155.00 153.00 149.00 150.00 148.00 151.00 156.00 153.00 151.00 158.00 168.00 180.00 178.00 173.00 163.00 154.00 154.00 132.00 133.00 133.00 163.00 213.00 208.00 207.00 195.00 195.00 205.00 196.00 197.00 196.00 201.00 200.00 195.00 217.00 228.00 221.00 215.00 209.00 201.00 197.00 197.00 203.00 202.00 203.00 183.00 172.00 171.00 153.00 133.00 133.00 143.00 147.00 173.00 201.00 225.00 228.00 230.00 178.00 139.00 126.00 73.00 52.00 79.00 37.00 67.00 57.00 45.00 31.00 28.00 23.00 31.00 26.00 20.00 9.00 6.00 7.00 6.00 7.00 4.00 6.00 5.00 6.00 3.00 4.00 1.00 1.00 1.00 1.00 1.00 1.00 1.00 1.00 1.00 1.00 1.00 1.00 1.00 1.00 1.00 1.00 1.00 1.00 1.00 0.00 0.00 1.00 0.00 0.00 0.00 0.00 0.00 0.00 1.00 0.00 0.00 78.00 80.00 99.00 132.00 128.00 79.00 38.00 55.00 96.00 119.00 123.00 115.00 113.00 115.00 118.00 122.00 121.00 114.00 109.00 113.00 127.00 141.00 152.00 154.00 156.00 157.00 152.00 149.00 151.00 150.00 152.00 161.00 159.00 154.00 156.00 162.00 175.00 182.00 184.00 186.00 199.00 207.00 201.00 185.00 170.00 184.00 196.00 191.00 186.00 190.00 194.00 205.00 198.00 200.00 201.00 191.00 195.00 243.00 259.00 238.00 213.00 189.00 164.00 147.00 128.00 126.00 124.00 115.00 120.00 135.00 159.00 181.00 193.00 220.00 241.00 248.00 239.00 214.00 209.00 205.00 204.00 185.00 187.00 188.00 169.00 138.00 92.00 116.00 40.00 58.00 49.00 53.00 44.00 63.00 53.00 52.00 38.00 29.00 12.00 16.00 8.00 4.00 6.00 3.00 5.00 4.00 6.00 2.00 5.00 3.00 2.00 1.00 1.00 1.00 1.00 1.00 1.00 1.00 1.00 1.00 0.00 0.00 1.00 0.00 1.00 1.00 0.00 0.00 0.00 0.00 0.00 0.00 0.00 0.00 1.00 0.00 0.00 1.00 0.00 0.00 69.00 76.00 104.00 126.00 116.00 76.00 37.00 35.00 60.00 85.00 104.00 114.00 120.00 121.00 123.00 130.00 128.00 126.00 127.00 137.00 144.00 145.00 149.00 151.00 154.00 150.00 144.00 148.00 153.00 153.00 157.00 164.00 161.00 156.00 159.00 162.00 167.00 169.00 172.00 177.00 184.00 182.00 183.00 184.00 180.00 187.00 193.00 190.00 193.00 194.00 192.00 183.00 176.00 197.00 205.00 205.00 209.00 197.00 178.00 152.00 132.00 118.00 85.00 74.00 68.00 75.00 68.00 60.00 64.00 71.00 76.00 110.00 140.00 173.00 203.00 202.00 203.00 212.00 201.00 205.00 200.00 194.00 192.00 196.00 186.00 159.00 126.00 125.00 52.00 56.00 45.00 49.00 59.00 76.00 54.00 57.00 48.00 35.00 24.00 21.00 23.00 11.00 8.00 3.00 5.00 3.00 7.00 3.00 5.00 4.00 5.00 6.00 3.00 3.00 1.00 0.00 1.00 1.00 1.00 1.00 0.00 0.00 0.00 0.00 0.00 1.00 0.00 0.00 0.00 0.00 0.00 0.00 0.00 0.00 1.00 1.00 0.00 1.00 0.00 0.00 61.00 79.00 108.00 106.00 79.00 54.00 46.00 46.00 48.00 44.00 56.00 89.00 115.00 122.00 129.00 135.00 127.00 123.00 122.00 134.00 144.00 147.00 150.00 151.00 150.00 143.00 139.00 147.00 152.00 152.00 158.00 165.00 167.00 163.00 167.00 165.00 164.00 171.00 177.00 175.00 180.00 172.00 164.00 171.00 177.00 179.00 182.00 178.00 181.00 176.00 179.00 175.00 172.00 193.00 198.00 173.00 136.00 116.00 91.00 69.00 64.00 91.00 108.00 114.00 128.00 131.00 142.00 146.00 145.00 135.00 115.00 100.00 70.00 66.00 94.00 129.00 180.00 208.00 207.00 209.00 210.00 203.00 205.00 203.00 195.00 183.00 169.00 154.00 99.00 68.00 45.00 51.00 60.00 75.00 50.00 57.00 52.00 33.00 27.00 23.00 26.00 15.00 16.00 7.00 7.00 2.00 4.00 1.00 2.00 2.00 5.00 7.00 7.00 4.00 3.00 1.00 2.00 0.00 0.00 1.00 0.00 0.00 0.00 0.00 0.00 0.00 0.00 0.00 0.00 0.00 0.00 0.00 0.00 0.00 0.00 1.00 0.00 1.00 0.00 0.00 59.00 94.00 106.00 77.00 42.00 37.00 54.00 72.00 83.00 79.00 64.00 53.00 74.00 114.00 129.00 127.00 120.00 120.00 126.00 139.00 146.00 147.00 151.00 152.00 150.00 145.00 145.00 150.00 150.00 151.00 157.00 162.00 168.00 168.00 170.00 165.00 163.00 165.00 169.00 172.00 187.00 178.00 168.00 173.00 165.00 170.00 177.00 179.00 177.00 178.00 190.00 187.00 160.00 139.00 111.00 90.00 64.00 62.00 82.00 111.00 133.00 165.00 180.00 209.00 215.00 218.00 224.00 221.00 213.00 213.00 213.00 196.00 161.00 136.00 93.00 58.00 88.00 123.00 172.00 202.00 205.00 203.00 205.00 202.00 207.00 194.00 189.00 175.00 156.00 114.00 66.00 59.00 57.00 66.00 41.00 55.00 50.00 29.00 30.00 31.00 28.00 16.00 16.00 7.00 7.00 3.00 5.00 1.00 3.00 3.00 7.00 8.00 8.00 5.00 5.00 5.00 4.00 5.00 2.00 1.00 0.00 1.00 1.00 0.00 0.00 1.00 1.00 0.00 0.00 0.00 0.00 0.00 1.00 0.00 0.00 0.00 0.00 0.00 0.00 0.00 77.00 100.00 87.00 52.00 37.00 45.00 54.00 89.00 128.00 140.00 115.00 59.00 48.00 96.00 127.00 124.00 124.00 125.00 129.00 137.00 141.00 142.00 143.00 145.00 149.00 150.00 150.00 150.00 149.00 153.00 157.00 159.00 163.00 164.00 167.00 161.00 161.00 162.00 161.00 168.00 183.00 176.00 168.00 166.00 160.00 178.00 187.00 192.00 184.00 169.00 140.00 113.00 87.00 76.00 72.00 98.00 120.00 139.00 167.00 188.00 210.00 219.00 225.00 220.00 217.00 217.00 221.00 221.00 215.00 217.00 217.00 218.00 220.00 220.00 212.00 190.00 130.00 66.00 78.00 124.00 171.00 198.00 203.00 201.00 203.00 192.00 181.00 183.00 185.00 151.00 99.00 79.00 75.00 79.00 46.00 66.00 50.00 30.00 33.00 32.00 28.00 16.00 16.00 8.00 7.00 5.00 5.00 3.00 3.00 4.00 8.00 9.00 8.00 6.00 6.00 5.00 4.00 6.00 3.00 2.00 1.00 1.00 1.00 1.00 1.00 1.00 1.00 0.00 0.00 0.00 0.00 0.00 1.00 1.00 0.00 0.00 0.00 0.00 0.00 0.00 92.00 92.00 63.00 44.00 45.00 51.00 65.00 108.00 155.00 175.00 155.00 87.00 48.00 82.00 118.00 122.00 127.00 126.00 127.00 135.00 140.00 140.00 138.00 138.00 142.00 144.00 144.00 146.00 149.00 153.00 157.00 159.00 164.00 165.00 169.00 162.00 163.00 164.00 161.00 164.00 172.00 162.00 162.00 157.00 163.00 179.00 180.00 160.00 135.00 110.00 84.00 69.00 83.00 119.00 149.00 170.00 197.00 207.00 215.00 220.00 222.00 225.00 227.00 223.00 218.00 218.00 219.00 222.00 219.00 221.00 224.00 228.00 226.00 224.00 226.00 233.00 229.00 202.00 155.00 107.00 54.00 90.00 169.00 196.00 199.00 184.00 201.00 202.00 203.00 175.00 137.00 105.00 94.00 93.00 65.00 72.00 53.00 30.00 36.00 34.00 30.00 21.00 18.00 10.00 10.00 6.00 5.00 4.00 4.00 4.00 4.00 6.00 5.00 5.00 6.00 5.00 3.00 5.00 3.00 2.00 2.00 1.00 1.00 1.00 1.00 1.00 1.00 1.00 0.00 1.00 1.00 0.00 1.00 1.00 1.00 1.00 0.00 1.00 1.00 1.00 91.00 61.00 42.00 43.00 49.00 70.00 91.00 132.00 170.00 193.00 168.00 93.00 50.00 80.00 112.00 122.00 127.00 123.00 127.00 137.00 143.00 140.00 140.00 139.00 139.00 142.00 145.00 146.00 148.00 152.00 157.00 160.00 162.00 163.00 171.00 165.00 165.00 166.00 164.00 163.00 170.00 161.00 168.00 153.00 140.00 140.00 127.00 104.00 77.00 80.00 107.00 130.00 157.00 177.00 201.00 214.00 220.00 216.00 218.00 221.00 222.00 225.00 227.00 222.00 219.00 219.00 221.00 223.00 221.00 220.00 223.00 222.00 222.00 220.00 228.00 236.00 235.00 233.00 227.00 181.00 123.00 61.00 102.00 151.00 191.00 194.00 202.00 208.00 210.00 196.00 161.00 127.00 111.00 92.00 68.00 62.00 55.00 34.00 52.00 47.00 35.00 27.00 20.00 13.00 12.00 8.00 8.00 6.00 6.00 6.00 5.00 7.00 5.00 5.00 6.00 5.00 4.00 4.00 3.00 3.00 3.00 3.00 1.00 0.00 1.00 2.00 1.00 1.00 0.00 1.00 1.00 0.00 1.00 1.00 1.00 1.00 1.00 1.00 1.00 1.00 71.00 43.00 51.00 59.00 52.00 64.00 82.00 123.00 159.00 175.00 139.00 73.00 58.00 96.00 118.00 127.00 131.00 129.00 133.00 137.00 140.00 137.00 139.00 141.00 142.00 147.00 148.00 144.00 143.00 146.00 151.00 150.00 148.00 152.00 162.00 160.00 160.00 163.00 157.00 163.00 169.00 156.00 143.00 116.00 95.00 86.00 81.00 114.00 136.00 150.00 172.00 201.00 225.00 226.00 222.00 222.00 226.00 227.00 223.00 225.00 225.00 220.00 218.00 217.00 220.00 220.00 221.00 220.00 220.00 220.00 222.00 221.00 220.00 215.00 209.00 222.00 233.00 233.00 228.00 220.00 189.00 145.00 69.00 100.00 149.00 199.00 203.00 201.00 207.00 204.00 185.00 156.00 139.00 102.00 81.00 60.00 45.00 23.00 54.00 49.00 40.00 33.00 24.00 22.00 16.00 13.00 9.00 8.00 8.00 9.00 10.00 10.00 5.00 5.00 5.00 5.00 4.00 4.00 3.00 4.00 5.00 4.00 2.00 1.00 1.00 1.00 1.00 1.00 1.00 1.00 1.00 1.00 1.00 1.00 2.00 1.00 1.00 0.00 1.00 1.00 46.00 58.00 77.00 78.00 63.00 52.00 68.00 105.00 135.00 127.00 77.00 52.00 82.00 115.00 125.00 128.00 130.00 133.00 136.00 135.00 130.00 127.00 129.00 134.00 138.00 141.00 141.00 140.00 136.00 134.00 137.00 138.00 144.00 149.00 154.00 156.00 157.00 165.00 155.00 144.00 127.00 106.00 89.00 91.00 105.00 124.00 141.00 172.00 194.00 212.00 222.00 226.00 233.00 231.00 228.00 226.00 223.00 228.00 224.00 220.00 221.00 218.00 216.00 216.00 216.00 217.00 219.00 217.00 215.00 217.00 219.00 218.00 214.00 203.00 196.00 202.00 203.00 214.00 224.00 225.00 214.00 190.00 151.00 71.00 88.00 153.00 203.00 195.00 198.00 197.00 199.00 176.00 154.00 122.00 91.00 73.00 52.00 24.00 61.00 56.00 42.00 35.00 26.00 25.00 17.00 15.00 9.00 9.00 9.00 10.00 9.00 9.00 6.00 4.00 5.00 5.00 4.00 3.00 4.00 5.00 6.00 4.00 2.00 2.00 1.00 1.00 1.00 1.00 1.00 1.00 1.00 1.00 1.00 1.00 1.00 2.00 0.00 0.00 1.00 1.00 73.00 84.00 88.00 92.00 83.00 57.00 55.00 73.00 77.00 59.00 58.00 83.00 98.00 111.00 120.00 123.00 124.00 126.00 130.00 130.00 124.00 118.00 120.00 125.00 130.00 133.00 133.00 138.00 138.00 134.00 135.00 142.00 152.00 151.00 151.00 151.00 143.00 138.00 125.00 100.00 78.00 83.00 94.00 125.00 154.00 176.00 197.00 213.00 217.00 219.00 220.00 222.00 221.00 221.00 218.00 222.00 220.00 218.00 215.00 213.00 216.00 218.00 217.00 218.00 217.00 219.00 220.00 219.00 214.00 215.00 219.00 219.00 213.00 201.00 195.00 204.00 206.00 214.00 221.00 229.00 227.00 228.00 196.00 159.00 86.00 88.00 154.00 185.00 187.00 197.00 198.00 191.00 178.00 130.00 101.00 78.00 67.00 44.00 75.00 54.00 40.00 33.00 25.00 24.00 17.00 14.00 9.00 9.00 9.00 10.00 10.00 11.00 8.00 6.00 7.00 6.00 7.00 7.00 7.00 8.00 8.00 5.00 3.00 2.00 2.00 2.00 1.00 2.00 1.00 1.00 1.00 1.00 1.00 1.00 1.00 1.00 0.00 1.00 1.00 1.00 71.00 82.00 95.00 106.00 100.00 74.00 56.00 56.00 61.00 69.00 83.00 93.00 98.00 107.00 116.00 120.00 119.00 121.00 125.00 126.00 120.00 115.00 123.00 137.00 141.00 139.00 139.00 143.00 143.00 140.00 136.00 145.00 150.00 147.00 147.00 140.00 118.00 94.00 79.00 73.00 76.00 103.00 128.00 165.00 196.00 207.00 216.00 230.00 232.00 227.00 213.00 207.00 205.00 212.00 218.00 221.00 217.00 214.00 211.00 210.00 211.00 210.00 210.00 214.00 215.00 215.00 215.00 210.00 204.00 206.00 212.00 214.00 209.00 201.00 198.00 211.00 213.00 215.00 217.00 226.00 229.00 236.00 232.00 206.00 145.00 69.00 95.00 155.00 189.00 189.00 175.00 186.00 185.00 160.00 141.00 107.00 82.00 48.00 71.00 49.00 51.00 33.00 37.00 25.00 18.00 13.00 8.00 8.00 9.00 9.00 10.00 11.00 8.00 5.00 5.00 4.00 5.00 5.00 5.00 6.00 6.00 4.00 3.00 2.00 1.00 2.00 2.00 2.00 1.00 1.00 1.00 1.00 1.00 0.00 1.00 1.00 1.00 1.00 1.00 1.00 51.00 74.00 97.00 110.00 97.00 81.00 67.00 61.00 67.00 78.00 88.00 94.00 101.00 109.00 118.00 120.00 120.00 125.00 128.00 125.00 120.00 119.00 1