# vtk DataFile Version 2.0
VTK from Matlab
ASCII
DATASET STRUCTURED_POINTS
DIMENSIONS 140 68 44
SPACING 1 1 1
ORIGIN 0 0 0
POINT_DATA 418880
SCALARS mag float 1
LOOKUP_TABLE default
0.00 0.00 0.00 0.00 0.00 0.00 0.00 0.00 0.00 0.00 0.00 0.00 0.00 1.00 1.00 1.00 1.00 0.00 0.00 0.00 0.00 0.00 1.00 0.00 0.00 0.00 0.00 1.00 0.00 0.00 0.00 0.00 0.00 0.00 0.00 0.00 0.00 0.00 0.00 0.00 0.00 0.00 0.00 0.00 0.00 0.00 0.00 0.00 0.00 0.00 0.00 0.00 0.00 0.00 0.00 0.00 0.00 0.00 0.00 0.00 0.00 0.00 0.00 0.00 0.00 0.00 0.00 0.00 0.00 0.00 0.00 0.00 0.00 0.00 0.00 0.00 0.00 0.00 0.00 0.00 0.00 0.00 0.00 0.00 0.00 0.00 0.00 0.00 0.00 0.00 0.00 0.00 0.00 0.00 0.00 0.00 0.00 0.00 0.00 0.00 0.00 0.00 0.00 0.00 0.00 0.00 0.00 0.00 0.00 0.00 0.00 0.00 0.00 0.00 0.00 0.00 0.00 0.00 0.00 0.00 0.00 0.00 0.00 0.00 0.00 0.00 0.00 0.00 0.00 0.00 0.00 0.00 0.00 0.00 0.00 0.00 0.00 0.00 0.00 0.00 0.00 0.00 0.00 0.00 1.00 1.00 1.00 1.00 1.00 0.00 1.00 0.00 1.00 1.00 1.00 1.00 1.00 1.00 0.00 0.00 0.00 0.00 0.00 0.00 0.00 1.00 0.00 0.00 0.00 0.00 0.00 0.00 0.00 0.00 0.00 0.00 0.00 0.00 0.00 0.00 0.00 0.00 0.00 0.00 0.00 1.00 0.00 0.00 0.00 0.00 0.00 0.00 0.00 0.00 0.00 0.00 0.00 0.00 0.00 0.00 0.00 0.00 0.00 0.00 0.00 0.00 0.00 0.00 0.00 0.00 0.00 0.00 0.00 0.00 0.00 0.00 0.00 0.00 0.00 0.00 0.00 0.00 0.00 0.00 0.00 0.00 0.00 0.00 0.00 0.00 0.00 0.00 0.00 0.00 0.00 0.00 0.00 0.00 0.00 0.00 0.00 0.00 0.00 0.00 0.00 0.00 0.00 0.00 0.00 0.00 0.00 0.00 0.00 0.00 0.00 0.00 0.00 0.00 0.00 0.00 0.00 0.00 0.00 0.00 0.00 0.00 0.00 0.00 0.00 0.00 0.00 0.00 0.00 0.00 0.00 0.00 0.00 0.00 0.00 0.00 0.00 0.00 0.00 0.00 1.00 1.00 1.00 1.00 1.00 0.00 1.00 1.00 1.00 1.00 1.00 0.00 1.00 1.00 0.00 0.00 0.00 0.00 0.00 0.00 0.00 1.00 1.00 0.00 0.00 1.00 0.00 0.00 0.00 1.00 0.00 0.00 0.00 0.00 0.00 0.00 0.00 0.00 0.00 0.00 0.00 0.00 0.00 0.00 0.00 0.00 0.00 0.00 0.00 0.00 0.00 0.00 0.00 0.00 0.00 0.00 0.00 0.00 0.00 0.00 0.00 0.00 0.00 0.00 0.00 0.00 0.00 0.00 0.00 0.00 0.00 0.00 0.00 0.00 0.00 0.00 0.00 0.00 0.00 0.00 0.00 0.00 0.00 0.00 0.00 0.00 0.00 0.00 0.00 0.00 0.00 0.00 0.00 0.00 0.00 0.00 0.00 0.00 0.00 0.00 0.00 0.00 0.00 0.00 0.00 0.00 0.00 0.00 0.00 0.00 0.00 0.00 0.00 0.00 0.00 0.00 0.00 0.00 0.00 0.00 0.00 0.00 0.00 0.00 0.00 0.00 0.00 0.00 0.00 0.00 0.00 0.00 0.00 0.00 0.00 0.00 0.00 0.00 0.00 0.00 1.00 1.00 1.00 1.00 1.00 0.00 1.00 1.00 1.00 1.00 0.00 1.00 1.00 0.00 0.00 0.00 0.00 0.00 0.00 0.00 0.00 1.00 0.00 0.00 0.00 1.00 0.00 0.00 0.00 0.00 0.00 0.00 0.00 0.00 0.00 0.00 0.00 0.00 0.00 0.00 0.00 0.00 0.00 0.00 0.00 0.00 0.00 0.00 0.00 0.00 0.00 0.00 0.00 0.00 0.00 0.00 0.00 0.00 0.00 0.00 0.00 0.00 0.00 0.00 0.00 0.00 0.00 0.00 0.00 0.00 0.00 0.00 0.00 0.00 0.00 0.00 0.00 0.00 0.00 0.00 0.00 0.00 0.00 0.00 0.00 0.00 0.00 0.00 0.00 0.00 0.00 0.00 0.00 0.00 0.00 0.00 0.00 0.00 0.00 0.00 0.00 0.00 0.00 0.00 0.00 0.00 0.00 0.00 0.00 0.00 0.00 0.00 0.00 0.00 0.00 0.00 0.00 0.00 0.00 0.00 0.00 0.00 0.00 0.00 0.00 0.00 0.00 0.00 0.00 0.00 0.00 0.00 0.00 0.00 0.00 0.00 0.00 0.00 0.00 1.00 1.00 1.00 1.00 1.00 0.00 0.00 0.00 1.00 1.00 2.00 0.00 0.00 1.00 1.00 0.00 0.00 0.00 0.00 0.00 0.00 0.00 1.00 0.00 0.00 0.00 1.00 0.00 0.00 0.00 0.00 0.00 0.00 0.00 0.00 0.00 0.00 0.00 0.00 0.00 0.00 0.00 0.00 0.00 0.00 0.00 0.00 0.00 0.00 0.00 0.00 0.00 0.00 0.00 0.00 0.00 0.00 0.00 0.00 0.00 0.00 0.00 0.00 0.00 0.00 0.00 0.00 0.00 0.00 0.00 0.00 0.00 0.00 0.00 0.00 0.00 0.00 0.00 0.00 0.00 0.00 0.00 0.00 0.00 0.00 0.00 0.00 0.00 0.00 0.00 0.00 0.00 0.00 0.00 0.00 0.00 0.00 0.00 0.00 0.00 0.00 0.00 0.00 0.00 0.00 0.00 0.00 0.00 0.00 0.00 0.00 0.00 0.00 0.00 0.00 0.00 0.00 0.00 0.00 0.00 0.00 0.00 0.00 0.00 0.00 0.00 0.00 0.00 0.00 0.00 0.00 0.00 0.00 0.00 0.00 0.00 0.00 0.00 0.00 0.00 1.00 1.00 1.00 1.00 1.00 1.00 0.00 0.00 0.00 0.00 1.00 0.00 1.00 1.00 1.00 1.00 0.00 0.00 0.00 0.00 0.00 0.00 1.00 0.00 0.00 0.00 0.00 0.00 0.00 0.00 0.00 0.00 0.00 0.00 0.00 0.00 0.00 0.00 0.00 0.00 0.00 0.00 0.00 0.00 0.00 0.00 0.00 0.00 0.00 0.00 0.00 0.00 0.00 0.00 0.00 0.00 0.00 0.00 0.00 0.00 0.00 0.00 0.00 0.00 0.00 0.00 0.00 0.00 0.00 0.00 0.00 0.00 0.00 0.00 0.00 0.00 0.00 0.00 0.00 0.00 0.00 0.00 0.00 0.00 0.00 0.00 0.00 0.00 0.00 0.00 0.00 0.00 0.00 0.00 0.00 0.00 0.00 0.00 0.00 0.00 0.00 0.00 0.00 0.00 0.00 0.00 0.00 0.00 0.00 0.00 0.00 0.00 0.00 0.00 0.00 0.00 0.00 0.00 0.00 0.00 0.00 0.00 0.00 0.00 0.00 0.00 0.00 0.00 0.00 0.00 0.00 0.00 0.00 0.00 0.00 0.00 0.00 0.00 0.00 0.00 2.00 1.00 1.00 1.00 2.00 1.00 0.00 1.00 0.00 0.00 0.00 0.00 1.00 1.00 0.00 0.00 0.00 0.00 0.00 0.00 0.00 0.00 0.00 0.00 0.00 0.00 0.00 0.00 0.00 0.00 0.00 0.00 0.00 0.00 0.00 0.00 0.00 0.00 0.00 0.00 0.00 0.00 0.00 0.00 0.00 0.00 0.00 0.00 0.00 0.00 0.00 0.00 0.00 0.00 0.00 0.00 0.00 0.00 0.00 0.00 0.00 0.00 0.00 0.00 0.00 0.00 0.00 0.00 0.00 0.00 0.00 0.00 0.00 0.00 0.00 0.00 0.00 0.00 0.00 0.00 0.00 0.00 0.00 0.00 0.00 0.00 0.00 0.00 0.00 0.00 0.00 0.00 0.00 0.00 0.00 0.00 0.00 0.00 0.00 0.00 0.00 0.00 0.00 0.00 0.00 0.00 0.00 0.00 0.00 0.00 0.00 0.00 0.00 0.00 0.00 0.00 0.00 0.00 0.00 0.00 0.00 0.00 0.00 0.00 0.00 0.00 0.00 0.00 0.00 0.00 0.00 0.00 0.00 0.00 0.00 0.00 0.00 0.00 0.00 0.00 1.00 1.00 1.00 1.00 1.00 1.00 1.00 1.00 1.00 0.00 0.00 0.00 0.00 1.00 0.00 0.00 0.00 0.00 0.00 0.00 0.00 1.00 0.00 0.00 0.00 0.00 0.00 0.00 0.00 0.00 0.00 0.00 0.00 0.00 0.00 0.00 0.00 0.00 0.00 0.00 0.00 0.00 0.00 0.00 0.00 0.00 0.00 0.00 0.00 0.00 0.00 0.00 0.00 0.00 0.00 0.00 0.00 0.00 0.00 0.00 0.00 0.00 0.00 0.00 0.00 0.00 0.00 0.00 0.00 0.00 0.00 0.00 0.00 0.00 0.00 0.00 0.00 0.00 0.00 0.00 0.00 0.00 0.00 0.00 0.00 0.00 0.00 0.00 0.00 0.00 0.00 0.00 0.00 0.00 0.00 0.00 0.00 0.00 0.00 0.00 0.00 0.00 0.00 0.00 0.00 0.00 0.00 0.00 0.00 0.00 0.00 0.00 0.00 0.00 0.00 0.00 0.00 0.00 0.00 0.00 0.00 0.00 0.00 0.00 0.00 0.00 0.00 0.00 0.00 0.00 0.00 0.00 0.00 0.00 0.00 0.00 0.00 0.00 0.00 0.00 0.00 1.00 1.00 0.00 1.00 1.00 1.00 1.00 1.00 0.00 1.00 0.00 1.00 1.00 1.00 0.00 0.00 0.00 1.00 0.00 1.00 1.00 0.00 0.00 0.00 0.00 0.00 0.00 0.00 0.00 0.00 0.00 0.00 0.00 0.00 0.00 0.00 0.00 0.00 0.00 0.00 0.00 0.00 0.00 0.00 0.00 0.00 0.00 1.00 0.00 0.00 0.00 0.00 0.00 0.00 0.00 0.00 0.00 1.00 1.00 1.00 1.00 0.00 0.00 0.00 0.00 0.00 0.00 0.00 0.00 0.00 0.00 0.00 0.00 0.00 0.00 0.00 0.00 0.00 0.00 0.00 0.00 0.00 0.00 0.00 0.00 0.00 0.00 0.00 0.00 0.00 0.00 0.00 0.00 0.00 0.00 0.00 0.00 0.00 0.00 0.00 0.00 0.00 0.00 0.00 0.00 0.00 0.00 0.00 0.00 0.00 0.00 0.00 0.00 0.00 0.00 0.00 0.00 0.00 0.00 0.00 0.00 0.00 0.00 0.00 0.00 0.00 0.00 0.00 0.00 0.00 0.00 0.00 0.00 0.00 0.00 0.00 0.00 0.00 0.00 0.00 0.00 1.00 1.00 1.00 1.00 1.00 1.00 1.00 1.00 0.00 0.00 1.00 1.00 1.00 1.00 1.00 0.00 1.00 1.00 0.00 0.00 0.00 0.00 0.00 1.00 1.00 0.00 0.00 0.00 0.00 0.00 0.00 0.00 0.00 0.00 0.00 0.00 0.00 0.00 0.00 0.00 0.00 0.00 0.00 0.00 0.00 0.00 1.00 1.00 0.00 0.00 0.00 1.00 0.00 0.00 0.00 1.00 0.00 1.00 1.00 1.00 1.00 1.00 0.00 1.00 1.00 0.00 0.00 0.00 0.00 0.00 0.00 0.00 0.00 0.00 0.00 0.00 0.00 0.00 0.00 0.00 0.00 0.00 0.00 0.00 0.00 0.00 0.00 0.00 0.00 0.00 0.00 0.00 0.00 0.00 0.00 0.00 0.00 0.00 0.00 0.00 0.00 0.00 0.00 0.00 0.00 0.00 0.00 0.00 0.00 0.00 0.00 0.00 0.00 0.00 0.00 0.00 0.00 0.00 0.00 0.00 0.00 0.00 0.00 0.00 0.00 0.00 0.00 0.00 0.00 0.00 0.00 0.00 0.00 0.00 0.00 0.00 0.00 0.00 0.00 1.00 1.00 1.00 1.00 1.00 1.00 2.00 1.00 1.00 0.00 0.00 1.00 1.00 1.00 1.00 1.00 1.00 1.00 1.00 0.00 0.00 0.00 0.00 0.00 1.00 1.00 0.00 0.00 0.00 0.00 0.00 0.00 0.00 0.00 0.00 0.00 0.00 0.00 0.00 0.00 0.00 0.00 0.00 0.00 0.00 0.00 0.00 1.00 1.00 0.00 0.00 0.00 1.00 0.00 0.00 1.00 1.00 1.00 1.00 1.00 1.00 1.00 1.00 1.00 1.00 1.00 0.00 0.00 0.00 0.00 0.00 0.00 0.00 0.00 0.00 0.00 0.00 0.00 0.00 0.00 0.00 0.00 0.00 0.00 0.00 0.00 0.00 0.00 0.00 0.00 0.00 0.00 0.00 0.00 0.00 0.00 0.00 0.00 0.00 0.00 0.00 0.00 0.00 0.00 0.00 0.00 0.00 0.00 0.00 0.00 0.00 0.00 0.00 0.00 0.00 0.00 0.00 0.00 0.00 0.00 0.00 0.00 0.00 0.00 0.00 0.00 0.00 0.00 0.00 0.00 0.00 0.00 0.00 0.00 0.00 0.00 0.00 0.00 0.00 1.00 0.00 1.00 1.00 1.00 1.00 1.00 1.00 1.00 0.00 0.00 0.00 1.00 0.00 0.00 0.00 1.00 0.00 0.00 0.00 0.00 0.00 0.00 0.00 1.00 1.00 0.00 0.00 0.00 1.00 1.00 1.00 1.00 2.00 2.00 2.00 2.00 2.00 1.00 1.00 1.00 1.00 1.00 1.00 1.00 0.00 0.00 0.00 0.00 0.00 0.00 0.00 0.00 0.00 0.00 0.00 0.00 1.00 1.00 1.00 1.00 1.00 1.00 1.00 1.00 1.00 1.00 0.00 0.00 0.00 0.00 0.00 0.00 0.00 0.00 0.00 0.00 0.00 1.00 1.00 1.00 0.00 0.00 0.00 0.00 0.00 0.00 0.00 0.00 0.00 0.00 0.00 0.00 0.00 0.00 0.00 0.00 0.00 0.00 0.00 0.00 0.00 0.00 0.00 0.00 0.00 0.00 0.00 0.00 0.00 0.00 0.00 0.00 0.00 0.00 0.00 0.00 0.00 0.00 0.00 0.00 0.00 0.00 0.00 0.00 0.00 0.00 0.00 0.00 0.00 0.00 0.00 0.00 0.00 0.00 0.00 0.00 0.00 0.00 0.00 1.00 0.00 0.00 1.00 0.00 1.00 2.00 1.00 1.00 0.00 0.00 1.00 1.00 1.00 0.00 0.00 0.00 0.00 0.00 0.00 0.00 0.00 0.00 0.00 0.00 1.00 1.00 1.00 1.00 1.00 0.00 0.00 1.00 2.00 2.00 1.00 2.00 4.00 6.00 6.00 6.00 4.00 3.00 3.00 3.00 2.00 2.00 2.00 2.00 1.00 0.00 0.00 0.00 0.00 0.00 0.00 0.00 0.00 0.00 0.00 0.00 0.00 0.00 0.00 1.00 1.00 1.00 0.00 1.00 0.00 0.00 0.00 0.00 0.00 0.00 0.00 0.00 0.00 1.00 1.00 1.00 1.00 1.00 0.00 0.00 0.00 0.00 0.00 0.00 0.00 0.00 0.00 0.00 0.00 0.00 0.00 0.00 0.00 0.00 0.00 0.00 0.00 0.00 0.00 0.00 0.00 0.00 0.00 0.00 0.00 0.00 0.00 0.00 0.00 0.00 0.00 0.00 0.00 0.00 0.00 0.00 0.00 0.00 0.00 0.00 0.00 0.00 0.00 0.00 0.00 0.00 0.00 0.00 0.00 0.00 0.00 0.00 0.00 0.00 0.00 0.00 0.00 0.00 0.00 1.00 1.00 2.00 1.00 2.00 0.00 0.00 0.00 1.00 1.00 0.00 1.00 0.00 1.00 1.00 0.00 0.00 1.00 0.00 0.00 1.00 1.00 0.00 1.00 0.00 1.00 2.00 4.00 7.00 9.00 7.00 5.00 11.00 17.00 18.00 17.00 14.00 9.00 4.00 2.00 2.00 2.00 2.00 3.00 3.00 1.00 0.00 0.00 0.00 0.00 0.00 0.00 1.00 0.00 0.00 0.00 0.00 0.00 0.00 0.00 0.00 0.00 0.00 0.00 0.00 0.00 0.00 0.00 0.00 0.00 0.00 0.00 0.00 0.00 0.00 0.00 1.00 1.00 1.00 0.00 0.00 1.00 0.00 0.00 0.00 0.00 0.00 1.00 0.00 0.00 0.00 0.00 0.00 0.00 0.00 0.00 0.00 0.00 0.00 0.00 0.00 0.00 0.00 0.00 0.00 0.00 0.00 0.00 0.00 0.00 0.00 0.00 0.00 0.00 0.00 0.00 0.00 0.00 0.00 0.00 0.00 0.00 0.00 0.00 0.00 0.00 0.00 0.00 0.00 0.00 0.00 0.00 0.00 0.00 0.00 0.00 0.00 0.00 0.00 1.00 1.00 1.00 2.00 1.00 2.00 1.00 0.00 1.00 1.00 1.00 1.00 1.00 0.00 1.00 1.00 1.00 1.00 1.00 1.00 2.00 5.00 6.00 5.00 3.00 5.00 5.00 9.00 9.00 11.00 9.00 6.00 5.00 11.00 17.00 19.00 23.00 29.00 33.00 34.00 33.00 35.00 28.00 18.00 10.00 8.00 5.00 1.00 0.00 0.00 0.00 0.00 0.00 0.00 0.00 0.00 0.00 0.00 0.00 0.00 0.00 0.00 0.00 0.00 0.00 0.00 0.00 0.00 0.00 0.00 0.00 0.00 0.00 0.00 0.00 0.00 0.00 0.00 0.00 0.00 0.00 0.00 0.00 0.00 0.00 0.00 0.00 0.00 1.00 0.00 0.00 0.00 0.00 0.00 0.00 0.00 0.00 0.00 0.00 0.00 0.00 0.00 0.00 0.00 0.00 0.00 0.00 0.00 0.00 0.00 0.00 0.00 0.00 0.00 0.00 0.00 0.00 0.00 0.00 0.00 0.00 0.00 0.00 0.00 0.00 0.00 0.00 0.00 0.00 0.00 0.00 0.00 0.00 0.00 0.00 0.00 0.00 0.00 1.00 1.00 1.00 2.00 2.00 3.00 1.00 1.00 1.00 0.00 1.00 1.00 2.00 1.00 1.00 2.00 1.00 1.00 1.00 2.00 4.00 4.00 5.00 8.00 7.00 2.00 4.00 17.00 32.00 49.00 64.00 77.00 80.00 88.00 86.00 94.00 104.00 106.00 102.00 97.00 89.00 79.00 62.00 48.00 33.00 24.00 16.00 21.00 16.00 10.00 9.00 5.00 3.00 2.00 1.00 0.00 0.00 0.00 0.00 0.00 0.00 0.00 0.00 0.00 0.00 0.00 0.00 0.00 0.00 0.00 0.00 0.00 0.00 0.00 0.00 0.00 0.00 0.00 0.00 0.00 0.00 0.00 0.00 0.00 0.00 0.00 0.00 0.00 0.00 0.00 0.00 0.00 0.00 0.00 0.00 0.00 0.00 0.00 0.00 0.00 0.00 0.00 0.00 0.00 0.00 0.00 0.00 0.00 0.00 0.00 0.00 0.00 0.00 0.00 0.00 0.00 0.00 0.00 0.00 0.00 0.00 0.00 0.00 0.00 0.00 0.00 0.00 0.00 0.00 0.00 0.00 0.00 0.00 0.00 0.00 0.00 0.00 0.00 0.00 0.00 1.00 1.00 1.00 3.00 2.00 3.00 1.00 1.00 2.00 0.00 2.00 2.00 1.00 1.00 1.00 1.00 1.00 3.00 4.00 6.00 7.00 7.00 2.00 16.00 32.00 61.00 83.00 101.00 122.00 141.00 171.00 183.00 193.00 200.00 185.00 164.00 158.00 175.00 199.00 210.00 204.00 192.00 186.00 171.00 133.00 99.00 62.00 47.00 24.00 9.00 12.00 9.00 7.00 11.00 8.00 4.00 1.00 1.00 1.00 1.00 1.00 0.00 0.00 0.00 0.00 0.00 0.00 0.00 0.00 0.00 0.00 0.00 0.00 0.00 0.00 0.00 0.00 0.00 0.00 0.00 0.00 0.00 0.00 0.00 0.00 0.00 0.00 0.00 0.00 0.00 0.00 0.00 0.00 0.00 0.00 0.00 0.00 0.00 0.00 0.00 0.00 0.00 0.00 0.00 0.00 0.00 0.00 0.00 0.00 0.00 0.00 0.00 0.00 0.00 0.00 0.00 0.00 0.00 0.00 0.00 0.00 0.00 0.00 0.00 0.00 0.00 0.00 0.00 0.00 0.00 0.00 0.00 0.00 0.00 0.00 0.00 0.00 0.00 0.00 0.00 2.00 2.00 1.00 2.00 1.00 1.00 1.00 2.00 2.00 0.00 1.00 2.00 1.00 1.00 1.00 2.00 5.00 12.00 9.00 9.00 5.00 10.00 40.00 78.00 101.00 139.00 149.00 153.00 158.00 139.00 143.00 135.00 163.00 164.00 165.00 178.00 165.00 155.00 170.00 185.00 185.00 174.00 185.00 198.00 189.00 176.00 143.00 132.00 106.00 97.00 70.00 40.00 9.00 8.00 6.00 3.00 4.00 7.00 7.00 4.00 2.00 1.00 1.00 1.00 0.00 0.00 0.00 0.00 0.00 0.00 0.00 0.00 0.00 0.00 0.00 0.00 0.00 0.00 0.00 0.00 0.00 0.00 0.00 0.00 0.00 0.00 0.00 0.00 0.00 0.00 0.00 0.00 0.00 0.00 0.00 0.00 0.00 0.00 0.00 0.00 0.00 0.00 0.00 0.00 0.00 0.00 0.00 0.00 0.00 0.00 0.00 0.00 0.00 0.00 0.00 0.00 0.00 0.00 0.00 0.00 0.00 0.00 0.00 0.00 0.00 0.00 0.00 0.00 0.00 0.00 0.00 0.00 0.00 0.00 0.00 0.00 0.00 0.00 0.00 0.00 1.00 1.00 1.00 1.00 1.00 1.00 1.00 2.00 1.00 1.00 2.00 2.00 1.00 1.00 4.00 11.00 10.00 13.00 9.00 20.00 48.00 74.00 99.00 127.00 137.00 143.00 139.00 140.00 155.00 142.00 193.00 218.00 239.00 247.00 270.00 292.00 288.00 247.00 242.00 230.00 219.00 192.00 192.00 193.00 197.00 174.00 139.00 120.00 114.00 130.00 123.00 103.00 79.00 69.00 49.00 36.00 17.00 7.00 4.00 2.00 4.00 4.00 2.00 3.00 1.00 0.00 0.00 0.00 0.00 0.00 1.00 0.00 0.00 0.00 0.00 0.00 0.00 0.00 0.00 0.00 0.00 0.00 0.00 0.00 0.00 0.00 0.00 0.00 0.00 0.00 0.00 0.00 0.00 0.00 0.00 0.00 0.00 0.00 0.00 0.00 0.00 0.00 0.00 0.00 0.00 0.00 0.00 0.00 0.00 0.00 0.00 0.00 0.00 0.00 0.00 0.00 0.00 0.00 0.00 0.00 0.00 0.00 0.00 0.00 0.00 0.00 0.00 0.00 0.00 0.00 0.00 0.00 0.00 0.00 0.00 0.00 0.00 0.00 0.00 1.00 1.00 1.00 0.00 1.00 0.00 0.00 1.00 1.00 1.00 2.00 3.00 2.00 2.00 11.00 14.00 14.00 8.00 4.00 23.00 56.00 94.00 119.00 134.00 142.00 128.00 124.00 159.00 193.00 220.00 239.00 305.00 358.00 352.00 344.00 360.00 360.00 391.00 377.00 375.00 397.00 393.00 378.00 342.00 329.00 327.00 309.00 275.00 209.00 183.00 146.00 142.00 110.00 105.00 110.00 105.00 89.00 79.00 69.00 54.00 43.00 26.00 10.00 3.00 2.00 2.00 2.00 0.00 1.00 0.00 1.00 1.00 1.00 1.00 0.00 0.00 0.00 0.00 0.00 0.00 0.00 0.00 0.00 0.00 0.00 0.00 0.00 0.00 0.00 0.00 0.00 0.00 0.00 0.00 0.00 0.00 0.00 0.00 0.00 0.00 0.00 0.00 0.00 0.00 0.00 0.00 0.00 0.00 0.00 0.00 0.00 0.00 0.00 0.00 0.00 0.00 0.00 0.00 0.00 0.00 0.00 0.00 0.00 0.00 0.00 0.00 0.00 0.00 0.00 0.00 0.00 0.00 0.00 0.00 0.00 0.00 0.00 0.00 0.00 0.00 1.00 1.00 1.00 1.00 2.00 1.00 1.00 1.00 1.00 2.00 4.00 3.00 2.00 6.00 16.00 17.00 8.00 12.00 40.00 76.00 104.00 131.00 150.00 120.00 114.00 143.00 184.00 233.00 277.00 322.00 335.00 349.00 379.00 332.00 298.00 303.00 327.00 346.00 350.00 355.00 412.00 446.00 472.00 452.00 445.00 400.00 385.00 358.00 312.00 281.00 221.00 181.00 142.00 111.00 112.00 99.00 96.00 105.00 102.00 88.00 82.00 72.00 63.00 38.00 22.00 5.00 3.00 2.00 3.00 1.00 2.00 3.00 3.00 1.00 0.00 0.00 0.00 0.00 0.00 0.00 0.00 0.00 0.00 0.00 0.00 0.00 0.00 0.00 0.00 0.00 0.00 0.00 0.00 0.00 0.00 0.00 0.00 0.00 0.00 0.00 0.00 0.00 0.00 0.00 0.00 0.00 0.00 0.00 0.00 0.00 0.00 0.00 0.00 0.00 0.00 0.00 0.00 0.00 0.00 0.00 0.00 0.00 0.00 0.00 0.00 0.00 0.00 0.00 0.00 0.00 0.00 0.00 0.00 0.00 0.00 0.00 0.00 0.00 0.00 0.00 1.00 1.00 2.00 2.00 3.00 2.00 1.00 1.00 1.00 3.00 5.00 4.00 3.00 10.00 17.00 8.00 4.00 43.00 91.00 119.00 124.00 144.00 147.00 113.00 148.00 229.00 279.00 301.00 327.00 316.00 284.00 252.00 228.00 187.00 178.00 177.00 178.00 168.00 183.00 197.00 227.00 265.00 300.00 337.00 359.00 352.00 372.00 399.00 401.00 371.00 339.00 297.00 266.00 222.00 178.00 138.00 122.00 96.00 97.00 93.00 87.00 86.00 92.00 83.00 71.00 50.00 36.00 23.00 9.00 1.00 2.00 2.00 2.00 1.00 0.00 0.00 0.00 0.00 0.00 0.00 0.00 1.00 0.00 0.00 0.00 0.00 0.00 0.00 0.00 0.00 0.00 0.00 0.00 0.00 0.00 0.00 0.00 0.00 0.00 0.00 0.00 0.00 0.00 0.00 0.00 0.00 0.00 0.00 0.00 0.00 0.00 0.00 0.00 0.00 0.00 0.00 0.00 0.00 0.00 0.00 0.00 0.00 0.00 0.00 0.00 0.00 0.00 0.00 0.00 0.00 0.00 0.00 0.00 0.00 0.00 0.00 0.00 0.00 0.00 0.00 1.00 2.00 3.00 2.00 1.00 2.00 1.00 1.00 1.00 4.00 6.00 3.00 5.00 11.00 8.00 18.00 44.00 78.00 108.00 129.00 112.00 115.00 145.00 175.00 208.00 259.00 285.00 275.00 269.00 236.00 192.00 155.00 121.00 109.00 107.00 137.00 175.00 183.00 171.00 155.00 157.00 142.00 111.00 127.00 161.00 191.00 238.00 288.00 321.00 344.00 363.00 383.00 358.00 311.00 243.00 199.00 215.00 204.00 174.00 131.00 105.00 89.00 103.00 107.00 97.00 77.00 67.00 62.00 47.00 35.00 17.00 5.00 2.00 1.00 1.00 0.00 0.00 0.00 0.00 0.00 0.00 0.00 0.00 0.00 0.00 0.00 0.00 0.00 0.00 0.00 0.00 0.00 0.00 0.00 0.00 0.00 0.00 0.00 0.00 0.00 0.00 0.00 0.00 0.00 0.00 0.00 0.00 0.00 0.00 0.00 0.00 0.00 0.00 0.00 0.00 0.00 0.00 0.00 0.00 0.00 0.00 0.00 0.00 0.00 0.00 0.00 0.00 0.00 0.00 0.00 0.00 0.00 0.00 0.00 0.00 0.00 0.00 0.00 0.00 0.00 1.00 1.00 2.00 2.00 1.00 1.00 1.00 1.00 2.00 6.00 8.00 3.00 3.00 11.00 28.00 59.00 93.00 110.00 114.00 125.00 104.00 105.00 161.00 216.00 220.00 187.00 156.00 153.00 132.00 108.00 99.00 137.00 164.00 183.00 187.00 209.00 250.00 272.00 264.00 258.00 258.00 252.00 230.00 200.00 170.00 158.00 128.00 91.00 98.00 120.00 156.00 235.00 296.00 345.00 315.00 257.00 260.00 231.00 226.00 212.00 214.00 180.00 148.00 127.00 105.00 95.00 82.00 79.00 67.00 64.00 57.00 43.00 30.00 10.00 9.00 4.00 2.00 0.00 0.00 1.00 0.00 2.00 0.00 0.00 0.00 0.00 0.00 0.00 0.00 0.00 0.00 0.00 0.00 0.00 0.00 0.00 0.00 0.00 0.00 0.00 0.00 0.00 0.00 0.00 0.00 0.00 0.00 0.00 0.00 0.00 0.00 0.00 0.00 0.00 0.00 0.00 0.00 0.00 0.00 0.00 0.00 0.00 0.00 0.00 0.00 0.00 0.00 0.00 0.00 0.00 0.00 0.00 0.00 0.00 0.00 0.00 0.00 0.00 0.00 0.00 2.00 1.00 1.00 2.00 2.00 2.00 2.00 2.00 7.00 6.00 8.00 9.00 13.00 38.00 63.00 77.00 105.00 124.00 104.00 94.00 117.00 122.00 167.00 183.00 159.00 123.00 92.00 123.00 170.00 204.00 232.00 262.00 284.00 284.00 284.00 297.00 317.00 320.00 317.00 320.00 329.00 325.00 324.00 302.00 275.00 245.00 230.00 229.00 220.00 179.00 134.00 85.00 96.00 135.00 187.00 263.00 299.00 296.00 277.00 276.00 292.00 290.00 244.00 204.00 145.00 120.00 88.00 77.00 73.00 82.00 92.00 80.00 62.00 45.00 40.00 26.00 16.00 7.00 4.00 3.00 5.00 6.00 1.00 0.00 0.00 1.00 1.00 1.00 0.00 0.00 0.00 1.00 0.00 0.00 0.00 0.00 0.00 0.00 0.00 0.00 0.00 0.00 0.00 0.00 0.00 0.00 0.00 0.00 0.00 0.00 0.00 0.00 0.00 0.00 0.00 0.00 0.00 0.00 0.00 0.00 0.00 0.00 0.00 0.00 0.00 0.00 0.00 0.00 0.00 0.00 0.00 0.00 0.00 0.00 0.00 0.00 0.00 0.00 0.00 0.00 1.00 2.00 2.00 1.00 1.00 2.00 1.00 3.00 6.00 4.00 18.00 43.00 70.00 84.00 82.00 80.00 94.00 106.00 83.00 88.00 127.00 161.00 152.00 127.00 109.00 106.00 152.00 201.00 242.00 281.00 313.00 327.00 327.00 325.00 323.00 324.00 323.00 325.00 332.00 334.00 341.00 343.00 344.00 341.00 334.00 322.00 312.00 292.00 271.00 234.00 227.00 211.00 185.00 130.00 74.00 101.00 146.00 214.00 273.00 299.00 338.00 339.00 343.00 333.00 309.00 234.00 173.00 143.00 99.00 101.00 102.00 83.00 64.00 68.00 64.00 53.00 39.00 38.00 32.00 32.00 39.00 35.00 12.00 4.00 2.00 1.00 1.00 1.00 1.00 1.00 1.00 1.00 1.00 1.00 1.00 0.00 0.00 0.00 0.00 0.00 0.00 0.00 0.00 0.00 0.00 0.00 1.00 1.00 1.00 1.00 1.00 1.00 1.00 0.00 0.00 0.00 0.00 0.00 0.00 0.00 0.00 0.00 0.00 0.00 0.00 0.00 0.00 0.00 0.00 0.00 0.00 0.00 0.00 0.00 0.00 0.00 0.00 0.00 0.00 0.00 1.00 1.00 2.00 6.00 3.00 1.00 3.00 1.00 9.00 31.00 59.00 89.00 98.00 101.00 88.00 77.00 86.00 92.00 80.00 91.00 111.00 132.00 109.00 84.00 109.00 163.00 213.00 248.00 275.00 317.00 321.00 316.00 313.00 322.00 323.00 322.00 321.00 324.00 326.00 322.00 321.00 328.00 336.00 337.00 336.00 334.00 336.00 337.00 328.00 310.00 286.00 263.00 236.00 218.00 192.00 144.00 97.00 100.00 137.00 154.00 218.00 263.00 307.00 338.00 351.00 361.00 344.00 316.00 217.00 176.00 135.00 112.00 79.00 84.00 76.00 60.00 53.00 58.00 55.00 59.00 64.00 46.00 32.00 12.00 11.00 5.00 2.00 1.00 1.00 1.00 1.00 0.00 1.00 1.00 1.00 1.00 0.00 0.00 0.00 0.00 0.00 0.00 0.00 0.00 0.00 0.00 1.00 1.00 1.00 1.00 1.00 0.00 0.00 0.00 0.00 0.00 0.00 0.00 0.00 0.00 0.00 0.00 0.00 0.00 0.00 0.00 0.00 0.00 0.00 0.00 0.00 0.00 0.00 0.00 0.00 0.00 0.00 0.00 0.00 0.00 1.00 1.00 7.00 10.00 7.00 3.00 5.00 20.00 51.00 78.00 83.00 107.00 100.00 88.00 75.00 80.00 85.00 92.00 94.00 93.00 102.00 115.00 108.00 131.00 180.00 227.00 263.00 293.00 299.00 310.00 304.00 302.00 305.00 308.00 306.00 306.00 308.00 315.00 321.00 321.00 324.00 331.00 336.00 337.00 341.00 339.00 344.00 348.00 349.00 361.00 370.00 359.00 322.00 284.00 246.00 191.00 149.00 112.00 93.00 96.00 140.00 178.00 216.00 253.00 275.00 339.00 363.00 368.00 334.00 312.00 270.00 222.00 186.00 152.00 134.00 86.00 79.00 69.00 72.00 67.00 74.00 58.00 44.00 21.00 17.00 13.00 7.00 3.00 3.00 1.00 0.00 0.00 0.00 1.00 1.00 0.00 0.00 0.00 0.00 0.00 0.00 1.00 0.00 0.00 0.00 0.00 0.00 0.00 0.00 0.00 0.00 0.00 0.00 0.00 0.00 0.00 0.00 0.00 0.00 0.00 0.00 0.00 0.00 0.00 0.00 0.00 0.00 0.00 0.00 0.00 0.00 0.00 0.00 0.00 0.00 0.00 0.00 0.00 0.00 0.00 3.00 3.00 6.00 4.00 8.00 19.00 44.00 56.00 86.00 94.00 85.00 100.00 96.00 82.00 103.00 121.00 145.00 98.00 110.00 106.00 103.00 107.00 112.00 155.00 206.00 247.00 283.00 282.00 289.00 285.00 281.00 283.00 278.00 281.00 280.00 282.00 289.00 298.00 304.00 310.00 313.00 316.00 314.00 314.00 321.00 327.00 340.00 347.00 353.00 350.00 362.00 369.00 376.00 389.00 383.00 348.00 294.00 228.00 164.00 123.00 101.00 110.00 152.00 209.00 241.00 257.00 253.00 293.00 364.00 387.00 370.00 316.00 281.00 234.00 208.00 161.00 107.00 96.00 113.00 97.00 88.00 80.00 69.00 49.00 48.00 41.00 32.00 23.00 11.00 2.00 1.00 1.00 0.00 1.00 1.00 1.00 0.00 0.00 0.00 0.00 0.00 0.00 0.00 0.00 0.00 0.00 0.00 0.00 0.00 0.00 0.00 0.00 0.00 0.00 0.00 0.00 0.00 0.00 0.00 0.00 0.00 0.00 0.00 0.00 0.00 0.00 0.00 0.00 0.00 0.00 0.00 0.00 0.00 0.00 0.00 0.00 0.00 0.00 0.00 0.00 4.00 4.00 3.00 1.00 16.00 35.00 66.00 84.00 104.00 101.00 78.00 75.00 102.00 111.00 138.00 157.00 182.00 130.00 132.00 114.00 113.00 118.00 113.00 151.00 200.00 249.00 267.00 273.00 283.00 286.00 279.00 274.00 272.00 273.00 278.00 285.00 292.00 299.00 303.00 304.00 303.00 309.00 310.00 311.00 311.00 318.00 323.00 319.00 315.00 321.00 340.00 358.00 365.00 372.00 374.00 379.00 399.00 390.00 354.00 302.00 239.00 168.00 97.00 117.00 185.00 223.00 241.00 260.00 268.00 295.00 301.00 283.00 258.00 230.00 209.00 208.00 164.00 173.00 163.00 125.00 89.00 72.00 89.00 77.00 65.00 64.00 49.00 47.00 34.00 22.00 5.00 5.00 2.00 2.00 2.00 2.00 1.00 1.00 1.00 0.00 1.00 1.00 0.00 0.00 0.00 0.00 0.00 0.00 0.00 0.00 0.00 0.00 0.00 0.00 0.00 0.00 0.00 0.00 0.00 0.00 0.00 0.00 0.00 0.00 0.00 0.00 0.00 0.00 0.00 0.00 0.00 0.00 0.00 0.00 0.00 0.00 0.00 0.00 0.00 0.00 4.00 6.00 4.00 1.00 22.00 56.00 84.00 93.00 91.00 72.00 73.00 89.00 118.00 140.00 172.00 199.00 207.00 181.00 175.00 170.00 167.00 152.00 128.00 132.00 167.00 220.00 249.00 271.00 286.00 291.00 288.00 280.00 277.00 276.00 277.00 282.00 288.00 294.00 302.00 304.00 310.00 317.00 319.00 317.00 312.00 313.00 319.00 322.00 322.00 322.00 323.00 323.00 332.00 351.00 360.00 367.00 371.00 376.00 386.00 390.00 374.00 345.00 289.00 229.00 124.00 70.00 141.00 189.00 232.00 262.00 271.00 262.00 252.00 269.00 290.00 290.00 277.00 258.00 250.00 201.00 153.00 79.00 86.00 84.00 81.00 75.00 73.00 61.00 51.00 44.00 25.00 16.00 9.00 7.00 4.00 2.00 3.00 6.00 9.00 9.00 5.00 4.00 1.00 0.00 0.00 0.00 0.00 0.00 0.00 0.00 0.00 0.00 0.00 0.00 0.00 0.00 0.00 0.00 0.00 0.00 0.00 0.00 0.00 0.00 0.00 0.00 0.00 0.00 0.00 0.00 0.00 0.00 0.00 0.00 0.00 0.00 0.00 0.00 0.00 0.00 3.00 6.00 4.00 1.00 22.00 63.00 90.00 101.00 86.00 66.00 74.00 100.00 132.00 165.00 192.00 231.00 237.00 226.00 224.00 196.00 192.00 177.00 160.00 145.00 129.00 149.00 188.00 225.00 243.00 256.00 247.00 238.00 240.00 245.00 235.00 239.00 246.00 255.00 271.00 281.00 295.00 309.00 312.00 308.00 301.00 300.00 303.00 311.00 313.00 318.00 319.00 325.00 328.00 342.00 351.00 357.00 356.00 370.00 373.00 373.00 374.00 380.00 373.00 350.00 322.00 276.00 196.00 88.00 102.00 170.00 214.00 243.00 278.00 319.00 356.00 350.00 355.00 320.00 305.00 286.00 245.00 188.00 165.00 121.00 95.00 79.00 91.00 80.00 92.00 76.00 60.00 40.00 29.00 17.00 7.00 4.00 3.00 6.00 8.00 9.00 6.00 6.00 4.00 3.00 1.00 0.00 0.00 0.00 0.00 0.00 0.00 0.00 0.00 0.00 0.00 0.00 0.00 0.00 0.00 0.00 0.00 0.00 0.00 0.00 0.00 0.00 0.00 0.00 0.00 0.00 0.00 0.00 1.00 1.00 1.00 1.00 1.00 0.00 0.00 0.00 3.00 5.00 4.00 2.00 17.00 58.00 90.00 110.00 93.00 74.00 80.00 104.00 162.00 201.00 213.00 250.00 269.00 263.00 229.00 181.00 182.00 177.00 168.00 165.00 138.00 132.00 120.00 148.00 187.00 226.00 234.00 247.00 248.00 256.00 250.00 251.00 256.00 262.00 274.00 281.00 283.00 283.00 279.00 281.00 286.00 298.00 310.00 318.00 313.00 313.00 318.00 326.00 327.00 335.00 335.00 333.00 324.00 322.00 332.00 347.00 364.00 371.00 367.00 368.00 370.00 339.00 296.00 253.00 182.00 113.00 96.00 136.00 182.00 237.00 292.00 310.00 323.00 329.00 312.00 315.00 302.00 263.00 253.00 221.00 176.00 115.00 93.00 86.00 77.00 57.00 58.00 60.00 52.00 40.00 28.00 21.00 10.00 10.00 7.00 6.00 4.00 4.00 6.00 9.00 6.00 3.00 1.00 1.00 1.00 0.00 0.00 0.00 0.00 0.00 0.00 0.00 0.00 0.00 0.00 0.00 0.00 0.00 0.00 0.00 0.00 0.00 0.00 0.00 0.00 0.00 0.00 0.00 0.00 1.00 1.00 1.00 0.00 0.00 0.00 0.00 2.00 4.00 5.00 7.00 14.00 48.00 82.00 107.00 93.00 80.00 72.00 113.00 183.00 216.00 221.00 238.00 238.00 217.00 188.00 172.00 171.00 161.00 155.00 158.00 147.00 159.00 167.00 188.00 222.00 252.00 243.00 233.00 225.00 236.00 247.00 251.00 259.00 267.00 278.00 284.00 288.00 285.00 281.00 285.00 292.00 304.00 316.00 319.00 308.00 304.00 307.00 315.00 317.00 322.00 322.00 323.00 313.00 309.00 317.00 337.00 348.00 362.00 364.00 374.00 378.00 373.00 360.00 331.00 295.00 256.00 192.00 133.00 108.00 97.00 115.00 192.00 229.00 271.00 280.00 297.00 299.00 269.00 259.00 231.00 206.00 168.00 140.00 115.00 87.00 55.00 40.00 56.00 51.00 61.00 58.00 59.00 48.00 35.00 23.00 12.00 7.00 5.00 5.00 6.00 5.00 7.00 9.00 8.00 4.00 1.00 2.00 1.00 1.00 0.00 0.00 0.00 0.00 0.00 0.00 0.00 0.00 0.00 0.00 0.00 0.00 0.00 0.00 0.00 0.00 0.00 0.00 0.00 0.00 1.00 1.00 1.00 0.00 0.00 0.00 0.00 2.00 2.00 6.00 13.00 9.00 37.00 67.00 97.00 92.00 92.00 61.00 108.00 186.00 219.00 228.00 221.00 218.00 220.00 204.00 198.00 166.00 141.00 128.00 150.00 181.00 214.00 239.00 253.00 253.00 259.00 250.00 238.00 222.00 219.00 231.00 242.00 250.00 258.00 257.00 262.00 266.00 264.00 263.00 270.00 274.00 282.00 286.00 281.00 277.00 275.00 285.00 305.00 308.00 317.00 322.00 319.00 310.00 299.00 305.00 314.00 319.00 331.00 354.00 369.00 368.00 364.00 370.00 382.00 358.00 309.00 260.00 225.00 186.00 139.00 123.00 124.00 129.00 150.00 187.00 216.00 237.00 248.00 252.00 253.00 212.00 177.00 144.00 130.00 108.00 78.00 50.00 51.00 40.00 54.00 48.00 57.00 57.00 47.00 45.00 25.00 17.00 12.00 9.00 5.00 4.00 4.00 9.00 12.00 11.00 8.00 6.00 4.00 2.00 1.00 0.00 0.00 0.00 0.00 0.00 0.00 0.00 0.00 0.00 0.00 0.00 0.00 0.00 0.00 0.00 0.00 0.00 0.00 0.00 0.00 1.00 0.00 0.00 0.00 0.00 0.00 1.00 1.00 4.00 12.00 9.00 6.00 38.00 85.00 95.00 99.00 62.00 89.00 171.00 219.00 237.00 236.00 232.00 241.00 218.00 200.00 161.00 143.00 140.00 188.00 247.00 258.00 254.00 255.00 261.00 265.00 268.00 270.00 277.00 277.00 274.00 277.00 279.00 280.00 271.00 269.00 274.00 267.00 267.00 271.00 271.00 266.00 266.00 268.00 281.00 284.00 289.00 299.00 302.00 303.00 305.00 300.00 303.00 299.00 306.00 305.00 307.00 312.00 328.00 343.00 350.00 350.00 358.00 369.00 361.00 346.00 333.00 318.00 286.00 245.00 207.00 189.00 150.00 100.00 132.00 155.00 169.00 186.00 234.00 316.00 265.00 230.00 151.00 144.00 112.00 114.00 73.00 79.00 42.00 51.00 48.00 60.00 62.00 57.00 57.00 47.00 33.00 23.00 12.00 7.00 2.00 3.00 7.00 12.00 14.00 14.00 9.00 7.00 4.00 1.00 1.00 0.00 0.00 0.00 0.00 0.00 0.00 0.00 0.00 0.00 0.00 0.00 0.00 0.00 0.00 0.00 0.00 0.00 0.00 0.00 0.00 0.00 0.00 0.00 0.00 0.00 1.00 1.00 4.00 5.00 5.00 4.00 11.00 41.00 81.00 98.00 78.00 61.00 127.00 209.00 239.00 254.00 250.00 251.00 226.00 211.00 194.00 185.00 168.00 188.00 238.00 258.00 257.00 252.00 259.00 266.00 272.00 271.00 277.00 282.00 285.00 288.00 291.00 296.00 291.00 287.00 296.00 291.00 291.00 292.00 294.00 294.00 292.00 290.00 297.00 294.00 290.00 297.00 298.00 303.00 306.00 306.00 304.00 304.00 311.00 309.00 310.00 317.00 332.00 347.00 355.00 350.00 347.00 357.00 359.00 352.00 351.00 332.00 305.00 279.00 265.00 246.00 220.00 151.00 98.00 117.00 144.00 141.00 177.00 277.00 270.00 269.00 206.00 197.00 150.00 126.00 89.00 83.00 53.00 57.00 59.00 69.00 66.00 61.00 57.00 55.00 46.00 43.00 32.00 19.00 8.00 5.00 6.00 8.00 11.00 13.00 12.00 9.00 6.00 2.00 1.00 0.00 0.00 0.00 0.00 0.00 0.00 0.00 0.00 0.00 0.00 0.00 0.00 0.00 0.00 0.00 0.00 0.00 0.00 0.00 0.00 0.00 0.00 0.00 0.00 0.00 2.00 1.00 3.00 3.00 3.00 4.00 2.00 18.00 59.00 90.00 88.00 69.00 81.00 152.00 200.00 235.00 243.00 250.00 234.00 227.00 226.00 217.00 188.00 171.00 211.00 245.00 255.00 251.00 251.00 257.00 261.00 266.00 269.00 274.00 279.00 283.00 283.00 292.00 295.00 292.00 298.00 300.00 300.00 304.00 305.00 308.00 310.00 313.00 312.00 308.00 302.00 302.00 296.00 305.00 306.00 309.00 298.00 299.00 304.00 302.00 309.00 316.00 320.00 324.00 323.00 331.00 333.00 354.00 351.00 358.00 356.00 354.00 354.00 352.00 329.00 283.00 246.00 204.00 184.00 149.00 109.00 100.00 148.00 230.00 251.00 286.00 259.00 222.00 182.00 139.00 112.00 92.00 55.00 58.00 57.00 57.00 63.00 61.00 58.00 57.00 51.00 48.00 43.00 33.00 24.00 15.00 6.00 2.00 4.00 9.00 11.00 9.00 6.00 3.00 2.00 1.00 0.00 0.00 0.00 0.00 0.00 0.00 0.00 0.00 0.00 0.00 0.00 0.00 0.00 0.00 0.00 0.00 0.00 0.00 0.00 0.00 0.00 0.00 0.00 0.00 1.00 2.00 2.00 2.00 1.00 3.00 3.00 8.00 25.00 62.00 87.00 86.00 63.00 93.00 143.00 203.00 215.00 246.00 241.00 233.00 216.00 208.00 198.00 165.00 164.00 197.00 233.00 247.00 255.00 256.00 258.00 262.00 267.00 271.00 279.00 284.00 282.00 285.00 289.00 290.00 295.00 299.00 295.00 296.00 300.00 304.00 305.00 306.00 310.00 314.00 318.00 314.00 305.