# vtk DataFile Version 2.0
VTK from Matlab
ASCII
DATASET STRUCTURED_POINTS
DIMENSIONS 140 68 44
SPACING 1 1 1
ORIGIN 0 0 0
POINT_DATA 418880
SCALARS mag float 1
LOOKUP_TABLE default
0.00 0.00 0.00 0.00 1.00 1.00 1.00 1.00 0.00 0.00 1.00 0.00 0.00 0.00 1.00 1.00 1.00 0.00 1.00 1.00 0.00 0.00 0.00 0.00 1.00 0.00 0.00 0.00 0.00 0.00 0.00 0.00 0.00 0.00 0.00 0.00 0.00 0.00 0.00 0.00 0.00 0.00 0.00 0.00 0.00 0.00 0.00 0.00 0.00 0.00 0.00 0.00 0.00 0.00 0.00 0.00 0.00 0.00 0.00 0.00 0.00 0.00 0.00 0.00 0.00 0.00 0.00 0.00 0.00 0.00 0.00 0.00 0.00 0.00 0.00 0.00 0.00 0.00 0.00 0.00 0.00 0.00 0.00 0.00 0.00 0.00 0.00 0.00 0.00 0.00 0.00 0.00 0.00 0.00 0.00 0.00 0.00 0.00 0.00 0.00 0.00 0.00 0.00 0.00 0.00 0.00 0.00 0.00 0.00 0.00 0.00 0.00 0.00 0.00 0.00 0.00 0.00 0.00 0.00 0.00 0.00 0.00 0.00 0.00 0.00 0.00 0.00 0.00 0.00 0.00 0.00 0.00 0.00 0.00 0.00 0.00 0.00 0.00 0.00 0.00 0.00 0.00 0.00 0.00 1.00 2.00 2.00 1.00 0.00 0.00 1.00 0.00 0.00 0.00 1.00 0.00 1.00 0.00 0.00 0.00 0.00 0.00 0.00 1.00 1.00 1.00 0.00 0.00 0.00 0.00 0.00 0.00 0.00 0.00 0.00 0.00 0.00 0.00 0.00 0.00 0.00 0.00 0.00 0.00 0.00 0.00 0.00 0.00 0.00 0.00 0.00 0.00 0.00 0.00 0.00 0.00 0.00 0.00 0.00 0.00 0.00 0.00 0.00 0.00 0.00 0.00 0.00 0.00 0.00 0.00 0.00 0.00 0.00 0.00 0.00 0.00 0.00 0.00 0.00 0.00 0.00 0.00 0.00 0.00 0.00 0.00 0.00 0.00 0.00 0.00 0.00 0.00 0.00 0.00 0.00 0.00 0.00 0.00 0.00 0.00 0.00 0.00 0.00 0.00 0.00 0.00 0.00 0.00 0.00 0.00 0.00 0.00 0.00 0.00 0.00 0.00 0.00 0.00 0.00 0.00 0.00 0.00 0.00 0.00 0.00 0.00 0.00 0.00 0.00 0.00 0.00 0.00 0.00 0.00 0.00 0.00 0.00 0.00 0.00 0.00 0.00 0.00 0.00 0.00 1.00 3.00 3.00 1.00 0.00 1.00 1.00 1.00 1.00 1.00 0.00 0.00 0.00 0.00 0.00 0.00 0.00 0.00 0.00 0.00 1.00 0.00 0.00 1.00 1.00 1.00 0.00 0.00 0.00 0.00 0.00 0.00 0.00 0.00 0.00 0.00 0.00 0.00 0.00 0.00 0.00 0.00 0.00 0.00 0.00 0.00 0.00 0.00 0.00 0.00 0.00 0.00 0.00 0.00 0.00 0.00 0.00 0.00 0.00 0.00 0.00 0.00 0.00 0.00 0.00 0.00 0.00 0.00 0.00 0.00 0.00 0.00 0.00 0.00 0.00 0.00 0.00 0.00 0.00 0.00 0.00 0.00 0.00 0.00 0.00 0.00 0.00 0.00 0.00 0.00 0.00 0.00 0.00 0.00 0.00 0.00 0.00 0.00 0.00 0.00 0.00 0.00 0.00 0.00 0.00 0.00 0.00 0.00 0.00 0.00 0.00 0.00 0.00 0.00 0.00 0.00 0.00 0.00 0.00 0.00 0.00 0.00 0.00 0.00 0.00 0.00 0.00 0.00 0.00 0.00 0.00 0.00 0.00 0.00 0.00 0.00 0.00 0.00 0.00 0.00 1.00 4.00 3.00 1.00 1.00 1.00 1.00 1.00 2.00 1.00 1.00 0.00 2.00 2.00 1.00 1.00 1.00 0.00 0.00 0.00 0.00 0.00 1.00 1.00 1.00 0.00 0.00 0.00 0.00 0.00 0.00 0.00 0.00 0.00 1.00 1.00 0.00 0.00 0.00 0.00 0.00 0.00 0.00 0.00 0.00 0.00 0.00 0.00 0.00 0.00 0.00 0.00 0.00 0.00 0.00 0.00 0.00 0.00 0.00 0.00 0.00 0.00 0.00 0.00 0.00 0.00 0.00 0.00 0.00 0.00 0.00 0.00 0.00 0.00 0.00 0.00 0.00 0.00 0.00 0.00 0.00 0.00 0.00 0.00 0.00 0.00 0.00 0.00 0.00 0.00 0.00 0.00 0.00 0.00 0.00 0.00 0.00 0.00 0.00 0.00 0.00 0.00 0.00 0.00 0.00 0.00 0.00 0.00 0.00 0.00 0.00 0.00 0.00 0.00 0.00 0.00 0.00 0.00 0.00 0.00 0.00 0.00 0.00 0.00 0.00 0.00 0.00 0.00 0.00 0.00 0.00 0.00 0.00 0.00 0.00 0.00 0.00 0.00 0.00 0.00 1.00 3.00 2.00 1.00 1.00 0.00 1.00 1.00 2.00 2.00 2.00 1.00 2.00 2.00 1.00 0.00 0.00 0.00 0.00 0.00 0.00 0.00 0.00 1.00 0.00 0.00 0.00 0.00 0.00 0.00 0.00 0.00 0.00 1.00 1.00 1.00 0.00 0.00 0.00 0.00 0.00 0.00 0.00 0.00 0.00 0.00 0.00 0.00 0.00 0.00 0.00 0.00 0.00 0.00 0.00 0.00 0.00 0.00 0.00 0.00 0.00 0.00 0.00 0.00 0.00 0.00 0.00 0.00 0.00 0.00 0.00 0.00 0.00 0.00 0.00 0.00 0.00 0.00 0.00 0.00 0.00 0.00 0.00 0.00 0.00 0.00 0.00 0.00 0.00 0.00 0.00 0.00 0.00 0.00 0.00 0.00 0.00 0.00 0.00 0.00 0.00 0.00 0.00 0.00 0.00 0.00 0.00 0.00 0.00 0.00 0.00 0.00 0.00 0.00 0.00 0.00 0.00 0.00 0.00 0.00 0.00 0.00 0.00 0.00 0.00 0.00 0.00 0.00 0.00 0.00 0.00 0.00 0.00 0.00 0.00 0.00 0.00 0.00 0.00 0.00 1.00 2.00 2.00 1.00 0.00 0.00 1.00 1.00 2.00 1.00 2.00 1.00 2.00 2.00 1.00 0.00 0.00 0.00 0.00 0.00 0.00 0.00 0.00 1.00 1.00 0.00 0.00 0.00 0.00 0.00 0.00 0.00 0.00 0.00 0.00 0.00 0.00 0.00 0.00 0.00 0.00 0.00 0.00 0.00 0.00 0.00 0.00 0.00 0.00 0.00 0.00 0.00 0.00 0.00 0.00 0.00 0.00 0.00 0.00 0.00 0.00 0.00 0.00 0.00 0.00 0.00 0.00 0.00 0.00 0.00 0.00 0.00 0.00 0.00 0.00 0.00 0.00 0.00 0.00 0.00 0.00 0.00 0.00 0.00 0.00 0.00 0.00 0.00 0.00 0.00 0.00 0.00 0.00 0.00 0.00 0.00 0.00 0.00 0.00 0.00 0.00 0.00 0.00 0.00 0.00 0.00 0.00 0.00 0.00 0.00 0.00 0.00 0.00 0.00 0.00 0.00 0.00 0.00 0.00 0.00 0.00 0.00 0.00 0.00 0.00 0.00 0.00 0.00 0.00 0.00 0.00 0.00 0.00 0.00 0.00 0.00 0.00 0.00 0.00 0.00 0.00 2.00 2.00 1.00 0.00 0.00 1.00 1.00 1.00 0.00 1.00 1.00 1.00 1.00 0.00 0.00 0.00 0.00 0.00 0.00 0.00 0.00 0.00 1.00 1.00 0.00 0.00 0.00 0.00 0.00 0.00 0.00 0.00 1.00 0.00 0.00 0.00 0.00 0.00 0.00 0.00 0.00 0.00 0.00 0.00 0.00 0.00 0.00 0.00 0.00 0.00 0.00 0.00 0.00 0.00 0.00 0.00 0.00 0.00 0.00 0.00 0.00 0.00 0.00 0.00 0.00 0.00 0.00 0.00 0.00 0.00 0.00 0.00 0.00 0.00 0.00 0.00 0.00 0.00 0.00 0.00 0.00 0.00 0.00 0.00 0.00 0.00 0.00 0.00 0.00 0.00 0.00 0.00 0.00 0.00 0.00 0.00 0.00 0.00 0.00 0.00 0.00 0.00 0.00 0.00 0.00 0.00 0.00 0.00 0.00 0.00 0.00 0.00 0.00 0.00 0.00 0.00 0.00 0.00 0.00 0.00 0.00 0.00 0.00 0.00 0.00 0.00 0.00 0.00 0.00 0.00 0.00 0.00 0.00 0.00 0.00 0.00 0.00 0.00 1.00 1.00 1.00 1.00 1.00 1.00 1.00 2.00 1.00 1.00 1.00 1.00 1.00 1.00 1.00 0.00 0.00 1.00 1.00 0.00 0.00 0.00 1.00 1.00 1.00 1.00 0.00 0.00 0.00 0.00 0.00 0.00 0.00 0.00 1.00 0.00 0.00 0.00 0.00 0.00 0.00 0.00 0.00 0.00 0.00 0.00 0.00 0.00 1.00 0.00 0.00 0.00 0.00 0.00 0.00 0.00 0.00 0.00 0.00 0.00 0.00 0.00 0.00 0.00 0.00 0.00 0.00 0.00 0.00 0.00 0.00 0.00 0.00 0.00 0.00 0.00 0.00 0.00 0.00 0.00 0.00 0.00 0.00 0.00 0.00 0.00 0.00 0.00 0.00 0.00 0.00 0.00 0.00 0.00 0.00 0.00 0.00 0.00 0.00 0.00 0.00 0.00 0.00 0.00 0.00 0.00 0.00 0.00 0.00 0.00 0.00 0.00 0.00 0.00 0.00 0.00 0.00 0.00 0.00 0.00 0.00 0.00 0.00 0.00 0.00 0.00 0.00 0.00 0.00 0.00 0.00 0.00 0.00 0.00 0.00 0.00 0.00 0.00 0.00 0.00 1.00 1.00 1.00 1.00 1.00 1.00 1.00 2.00 0.00 1.00 1.00 0.00 0.00 1.00 0.00 0.00 0.00 1.00 1.00 0.00 0.00 1.00 2.00 1.00 1.00 0.00 0.00 1.00 0.00 0.00 0.00 0.00 0.00 0.00 0.00 0.00 0.00 0.00 0.00 0.00 0.00 0.00 0.00 0.00 0.00 0.00 0.00 0.00 1.00 0.00 0.00 0.00 0.00 0.00 0.00 0.00 0.00 0.00 0.00 0.00 0.00 0.00 0.00 0.00 0.00 0.00 0.00 0.00 0.00 0.00 0.00 0.00 0.00 0.00 0.00 0.00 0.00 0.00 0.00 0.00 0.00 0.00 0.00 0.00 0.00 0.00 0.00 0.00 0.00 0.00 0.00 0.00 0.00 0.00 0.00 0.00 0.00 0.00 0.00 0.00 0.00 0.00 0.00 0.00 0.00 0.00 0.00 0.00 0.00 0.00 0.00 0.00 0.00 0.00 0.00 0.00 0.00 0.00 0.00 0.00 0.00 0.00 0.00 0.00 0.00 0.00 0.00 0.00 0.00 0.00 0.00 0.00 0.00 0.00 0.00 0.00 0.00 0.00 0.00 0.00 1.00 0.00 2.00 2.00 1.00 1.00 1.00 1.00 0.00 0.00 0.00 0.00 0.00 0.00 0.00 0.00 0.00 1.00 1.00 0.00 0.00 0.00 1.00 1.00 0.00 0.00 0.00 0.00 0.00 0.00 0.00 1.00 1.00 0.00 0.00 0.00 0.00 0.00 0.00 0.00 0.00 0.00 0.00 0.00 0.00 0.00 0.00 0.00 1.00 1.00 0.00 0.00 0.00 0.00 0.00 0.00 0.00 0.00 0.00 1.00 0.00 0.00 0.00 0.00 0.00 0.00 0.00 0.00 0.00 0.00 0.00 0.00 0.00 0.00 0.00 0.00 0.00 0.00 0.00 0.00 0.00 0.00 0.00 0.00 0.00 0.00 0.00 0.00 0.00 0.00 0.00 0.00 0.00 0.00 0.00 0.00 0.00 0.00 0.00 0.00 0.00 0.00 0.00 0.00 0.00 0.00 0.00 0.00 0.00 0.00 0.00 0.00 0.00 0.00 0.00 0.00 0.00 0.00 0.00 0.00 0.00 0.00 0.00 0.00 0.00 0.00 0.00 0.00 0.00 0.00 0.00 0.00 0.00 0.00 0.00 0.00 0.00 0.00 0.00 0.00 2.00 0.00 1.00 1.00 0.00 0.00 1.00 1.00 2.00 1.00 0.00 0.00 0.00 0.00 0.00 1.00 0.00 0.00 0.00 0.00 0.00 0.00 0.00 0.00 0.00 0.00 0.00 0.00 0.00 0.00 0.00 1.00 1.00 0.00 0.00 0.00 0.00 0.00 0.00 0.00 0.00 0.00 1.00 0.00 0.00 0.00 0.00 0.00 1.00 1.00 0.00 0.00 0.00 0.00 1.00 0.00 0.00 0.00 0.00 1.00 1.00 1.00 1.00 1.00 0.00 0.00 0.00 0.00 1.00 0.00 0.00 0.00 0.00 0.00 0.00 0.00 0.00 0.00 0.00 0.00 0.00 0.00 0.00 0.00 0.00 0.00 0.00 0.00 0.00 0.00 0.00 0.00 0.00 0.00 0.00 0.00 0.00 0.00 0.00 0.00 0.00 0.00 0.00 0.00 0.00 0.00 0.00 0.00 0.00 0.00 0.00 0.00 0.00 0.00 0.00 0.00 0.00 0.00 0.00 0.00 0.00 0.00 0.00 0.00 0.00 0.00 0.00 0.00 0.00 0.00 0.00 0.00 0.00 0.00 0.00 0.00 0.00 0.00 0.00 0.00 2.00 1.00 1.00 1.00 1.00 0.00 1.00 0.00 2.00 1.00 0.00 0.00 0.00 0.00 0.00 1.00 0.00 1.00 0.00 0.00 0.00 1.00 0.00 0.00 0.00 0.00 0.00 0.00 0.00 0.00 0.00 0.00 1.00 1.00 1.00 1.00 0.00 1.00 1.00 1.00 0.00 0.00 0.00 0.00 0.00 0.00 0.00 0.00 1.00 1.00 0.00 0.00 0.00 0.00 0.00 0.00 0.00 0.00 0.00 0.00 0.00 1.00 1.00 1.00 1.00 1.00 0.00 0.00 0.00 0.00 0.00 0.00 0.00 0.00 0.00 0.00 0.00 0.00 0.00 0.00 0.00 0.00 0.00 0.00 0.00 0.00 0.00 0.00 0.00 0.00 0.00 0.00 0.00 0.00 0.00 0.00 0.00 0.00 0.00 0.00 0.00 0.00 0.00 0.00 0.00 0.00 0.00 0.00 0.00 0.00 0.00 0.00 0.00 0.00 0.00 0.00 0.00 0.00 0.00 0.00 0.00 0.00 0.00 0.00 0.00 0.00 0.00 0.00 0.00 0.00 0.00 0.00 0.00 0.00 0.00 0.00 0.00 0.00 0.00 0.00 1.00 1.00 1.00 2.00 2.00 0.00 1.00 1.00 1.00 1.00 0.00 1.00 1.00 0.00 0.00 1.00 1.00 1.00 0.00 0.00 0.00 0.00 0.00 0.00 0.00 0.00 0.00 0.00 0.00 0.00 1.00 1.00 2.00 2.00 2.00 2.00 1.00 2.00 3.00 2.00 1.00 0.00 0.00 0.00 0.00 0.00 0.00 0.00 0.00 1.00 0.00 0.00 0.00 0.00 0.00 0.00 0.00 0.00 0.00 0.00 0.00 0.00 0.00 0.00 0.00 0.00 0.00 0.00 0.00 0.00 0.00 0.00 0.00 0.00 0.00 0.00 0.00 0.00 0.00 1.00 0.00 0.00 0.00 0.00 0.00 0.00 0.00 0.00 0.00 0.00 0.00 0.00 0.00 0.00 0.00 0.00 0.00 0.00 0.00 0.00 0.00 0.00 0.00 0.00 0.00 0.00 0.00 0.00 0.00 0.00 0.00 0.00 0.00 0.00 0.00 0.00 0.00 0.00 0.00 0.00 0.00 0.00 0.00 0.00 0.00 0.00 0.00 0.00 0.00 0.00 0.00 0.00 0.00 0.00 0.00 0.00 0.00 0.00 0.00 0.00 1.00 2.00 3.00 3.00 1.00 1.00 1.00 2.00 0.00 1.00 1.00 1.00 1.00 1.00 0.00 1.00 2.00 1.00 1.00 1.00 1.00 1.00 0.00 1.00 1.00 0.00 0.00 0.00 0.00 0.00 0.00 0.00 0.00 2.00 1.00 2.00 2.00 1.00 1.00 3.00 4.00 5.00 5.00 3.00 1.00 1.00 1.00 1.00 1.00 1.00 1.00 1.00 0.00 0.00 0.00 0.00 0.00 0.00 0.00 0.00 0.00 0.00 0.00 0.00 0.00 0.00 0.00 0.00 0.00 0.00 0.00 0.00 0.00 0.00 0.00 0.00 0.00 0.00 0.00 1.00 1.00 1.00 0.00 0.00 0.00 0.00 0.00 0.00 0.00 0.00 0.00 0.00 0.00 0.00 0.00 0.00 0.00 0.00 0.00 0.00 0.00 0.00 0.00 0.00 0.00 0.00 0.00 0.00 0.00 0.00 0.00 0.00 0.00 0.00 0.00 0.00 0.00 0.00 0.00 0.00 0.00 0.00 0.00 0.00 0.00 0.00 0.00 0.00 0.00 0.00 0.00 0.00 0.00 0.00 0.00 0.00 0.00 0.00 0.00 0.00 0.00 1.00 3.00 2.00 1.00 2.00 1.00 2.00 0.00 0.00 0.00 1.00 2.00 2.00 1.00 1.00 1.00 1.00 1.00 1.00 1.00 1.00 1.00 1.00 1.00 1.00 1.00 1.00 3.00 6.00 9.00 13.00 15.00 16.00 16.00 15.00 21.00 31.00 33.00 33.00 31.00 26.00 22.00 15.00 10.00 5.00 2.00 1.00 4.00 3.00 2.00 1.00 2.00 2.00 1.00 1.00 0.00 0.00 0.00 0.00 0.00 0.00 0.00 0.00 0.00 0.00 0.00 0.00 0.00 0.00 0.00 0.00 0.00 0.00 0.00 0.00 0.00 0.00 0.00 0.00 0.00 1.00 0.00 0.00 0.00 1.00 1.00 0.00 0.00 0.00 1.00 1.00 0.00 0.00 0.00 0.00 0.00 0.00 0.00 0.00 0.00 0.00 0.00 0.00 0.00 0.00 0.00 0.00 0.00 0.00 0.00 0.00 0.00 0.00 0.00 0.00 0.00 0.00 0.00 0.00 0.00 0.00 0.00 0.00 0.00 0.00 0.00 0.00 0.00 0.00 0.00 0.00 0.00 0.00 0.00 0.00 0.00 0.00 0.00 0.00 0.00 0.00 1.00 1.00 1.00 1.00 2.00 2.00 1.00 0.00 0.00 0.00 2.00 3.00 1.00 1.00 1.00 1.00 1.00 1.00 0.00 2.00 3.00 8.00 11.00 9.00 11.00 7.00 9.00 9.00 4.00 1.00 2.00 5.00 9.00 9.00 12.00 20.00 20.00 14.00 21.00 27.00 32.00 35.00 40.00 36.00 33.00 24.00 23.00 11.00 9.00 5.00 4.00 1.00 1.00 1.00 1.00 0.00 0.00 1.00 1.00 2.00 1.00 0.00 0.00 0.00 0.00 0.00 0.00 0.00 0.00 0.00 0.00 0.00 0.00 0.00 0.00 0.00 0.00 0.00 0.00 0.00 0.00 0.00 0.00 0.00 0.00 0.00 0.00 0.00 0.00 1.00 1.00 0.00 0.00 0.00 0.00 0.00 0.00 0.00 0.00 0.00 0.00 0.00 0.00 0.00 0.00 0.00 0.00 0.00 0.00 0.00 0.00 0.00 0.00 0.00 0.00 0.00 0.00 0.00 0.00 0.00 0.00 0.00 0.00 0.00 0.00 0.00 0.00 0.00 0.00 0.00 0.00 0.00 0.00 0.00 0.00 0.00 0.00 0.00 0.00 0.00 1.00 1.00 1.00 1.00 1.00 1.00 1.00 1.00 0.00 0.00 1.00 2.00 1.00 1.00 1.00 0.00 1.00 2.00 4.00 3.00 6.00 12.00 9.00 3.00 13.00 21.00 36.00 56.00 68.00 81.00 90.00 97.00 109.00 115.00 123.00 125.00 125.00 127.00 130.00 129.00 121.00 103.00 87.00 60.00 42.00 25.00 26.00 26.00 30.00 24.00 17.00 15.00 14.00 9.00 5.00 3.00 1.00 1.00 1.00 1.00 1.00 0.00 1.00 1.00 1.00 1.00 0.00 0.00 0.00 0.00 0.00 0.00 0.00 0.00 0.00 0.00 0.00 0.00 0.00 0.00 0.00 0.00 0.00 0.00 0.00 0.00 0.00 0.00 0.00 0.00 0.00 0.00 0.00 0.00 0.00 0.00 0.00 0.00 0.00 0.00 0.00 0.00 0.00 0.00 0.00 0.00 0.00 0.00 0.00 0.00 0.00 0.00 0.00 0.00 0.00 0.00 0.00 0.00 0.00 0.00 0.00 0.00 0.00 0.00 0.00 0.00 0.00 0.00 0.00 0.00 0.00 0.00 0.00 0.00 0.00 0.00 0.00 0.00 1.00 0.00 0.00 0.00 1.00 2.00 2.00 1.00 1.00 1.00 2.00 1.00 2.00 1.00 1.00 2.00 2.00 5.00 9.00 11.00 9.00 5.00 2.00 13.00 42.00 59.00 83.00 99.00 114.00 132.00 142.00 155.00 155.00 169.00 170.00 151.00 121.00 119.00 153.00 199.00 222.00 215.00 198.00 200.00 198.00 178.00 153.00 111.00 96.00 73.00 51.00 21.00 10.00 15.00 19.00 12.00 12.00 12.00 16.00 13.00 7.00 4.00 1.00 1.00 1.00 1.00 2.00 1.00 0.00 0.00 0.00 0.00 0.00 0.00 0.00 0.00 0.00 0.00 0.00 0.00 0.00 0.00 0.00 0.00 0.00 0.00 0.00 0.00 0.00 0.00 0.00 0.00 0.00 0.00 0.00 0.00 0.00 0.00 0.00 0.00 0.00 0.00 0.00 0.00 0.00 0.00 0.00 0.00 0.00 0.00 0.00 0.00 0.00 0.00 0.00 0.00 0.00 0.00 0.00 0.00 0.00 0.00 0.00 0.00 0.00 0.00 0.00 0.00 0.00 0.00 0.00 0.00 0.00 0.00 0.00 0.00 0.00 0.00 0.00 0.00 1.00 0.00 0.00 1.00 1.00 2.00 1.00 1.00 1.00 1.00 2.00 2.00 1.00 1.00 1.00 2.00 9.00 9.00 15.00 10.00 7.00 19.00 44.00 66.00 98.00 115.00 131.00 126.00 126.00 126.00 96.00 114.00 114.00 135.00 138.00 153.00 174.00 178.00 162.00 159.00 160.00 161.00 145.00 141.00 140.00 142.00 148.00 141.00 141.00 125.00 125.00 101.00 80.00 58.00 43.00 18.00 4.00 11.00 18.00 15.00 9.00 8.00 10.00 11.00 7.00 4.00 2.00 1.00 0.00 0.00 0.00 0.00 0.00 0.00 0.00 0.00 0.00 0.00 0.00 0.00 0.00 0.00 0.00 0.00 0.00 0.00 0.00 0.00 0.00 0.00 0.00 0.00 0.00 0.00 0.00 0.00 0.00 0.00 0.00 0.00 0.00 0.00 0.00 0.00 0.00 0.00 0.00 0.00 0.00 0.00 0.00 0.00 0.00 0.00 0.00 0.00 0.00 0.00 0.00 0.00 0.00 0.00 0.00 0.00 0.00 0.00 0.00 0.00 0.00 0.00 0.00 0.00 0.00 0.00 0.00 0.00 0.00 0.00 0.00 0.00 2.00 1.00 0.00 1.00 2.00 2.00 2.00 0.00 1.00 2.00 2.00 1.00 1.00 1.00 3.00 8.00 19.00 11.00 6.00 14.00 35.00 66.00 95.00 113.00 125.00 121.00 103.00 110.00 133.00 155.00 158.00 203.00 246.00 264.00 276.00 303.00 316.00 334.00 295.00 289.00 285.00 271.00 239.00 211.00 205.00 219.00 200.00 166.00 118.00 108.00 114.00 125.00 112.00 104.00 106.00 89.00 70.00 53.00 44.00 25.00 11.00 3.00 12.00 12.00 7.00 6.00 6.00 3.00 1.00 2.00 1.00 0.00 0.00 0.00 0.00 0.00 0.00 0.00 0.00 0.00 0.00 0.00 0.00 0.00 0.00 0.00 0.00 0.00 0.00 0.00 0.00 0.00 0.00 0.00 0.00 0.00 0.00 0.00 0.00 0.00 0.00 0.00 0.00 0.00 0.00 0.00 0.00 0.00 0.00 0.00 0.00 0.00 0.00 0.00 0.00 0.00 0.00 0.00 0.00 0.00 0.00 0.00 0.00 0.00 0.00 0.00 0.00 0.00 0.00 0.00 0.00 0.00 0.00 0.00 0.00 0.00 0.00 0.00 0.00 0.00 2.00 1.00 1.00 2.00 3.00 2.00 2.00 0.00 1.00 1.00 1.00 1.00 1.00 4.00 15.00 15.00 13.00 5.00 25.00 54.00 85.00 107.00 128.00 123.00 112.00 114.00 142.00 181.00 220.00 274.00 292.00 336.00 403.00 383.00 360.00 357.00 361.00 394.00 406.00 411.00 450.00 463.00 461.00 418.00 399.00 364.00 345.00 298.00 230.00 211.00 169.00 161.00 116.00 94.00 91.00 88.00 102.00 105.00 90.00 76.00 65.00 61.00 44.00 17.00 2.00 4.00 6.00 3.00 1.00 3.00 4.00 4.00 4.00 2.00 1.00 0.00 0.00 0.00 0.00 0.00 0.00 1.00 0.00 0.00 0.00 0.00 0.00 0.00 0.00 0.00 0.00 0.00 0.00 0.00 0.00 0.00 0.00 0.00 0.00 0.00 0.00 0.00 0.00 0.00 0.00 0.00 0.00 0.00 0.00 0.00 0.00 0.00 0.00 0.00 0.00 0.00 0.00 0.00 0.00 0.00 0.00 0.00 0.00 0.00 0.00 0.00 0.00 0.00 0.00 0.00 0.00 0.00 0.00 0.00 0.00 0.00 0.00 0.00 0.00 0.00 2.00 1.00 0.00 3.00 3.00 2.00 1.00 0.00 2.00 2.00 2.00 2.00 0.00 11.00 21.00 16.00 3.00 24.00 72.00 98.00 114.00 142.00 151.00 103.00 119.00 186.00 242.00 275.00 321.00 355.00 337.00 326.00 333.00 290.00 273.00 286.00 306.00 307.00 314.00 317.00 361.00 404.00 429.00 427.00 430.00 406.00 406.00 393.00 359.00 331.00 284.00 242.00 218.00 179.00 147.00 113.00 85.00 77.00 83.00 82.00 75.00 76.00 74.00 66.00 53.00 29.00 17.00 5.00 0.00 3.00 5.00 6.00 8.00 5.00 4.00 1.00 1.00 0.00 0.00 0.00 0.00 1.00 0.00 0.00 0.00 0.00 0.00 0.00 0.00 0.00 0.00 1.00 1.00 1.00 0.00 0.00 0.00 0.00 0.00 0.00 0.00 0.00 0.00 0.00 0.00 0.00 0.00 0.00 0.00 0.00 0.00 0.00 0.00 0.00 0.00 0.00 0.00 0.00 0.00 0.00 0.00 0.00 0.00 0.00 0.00 0.00 0.00 0.00 0.00 0.00 0.00 0.00 0.00 0.00 0.00 0.00 0.00 0.00 0.00 0.00 2.00 1.00 0.00 4.00 5.00 3.00 1.00 1.00 2.00 4.00 7.00 5.00 6.00 18.00 18.00 3.00 24.00 63.00 99.00 121.00 105.00 106.00 120.00 140.00 186.00 251.00 302.00 310.00 306.00 287.00 257.00 209.00 176.00 134.00 104.00 104.00 119.00 119.00 118.00 135.00 152.00 174.00 202.00 261.00 294.00 303.00 336.00 370.00 390.00 406.00 397.00 374.00 326.00 274.00 209.00 178.00 181.00 163.00 131.00 107.00 83.00 77.00 84.00 87.00 75.00 56.00 49.00 42.00 32.00 16.00 1.00 4.00 9.00 5.00 5.00 6.00 6.00 6.00 3.00 2.00 2.00 2.00 1.00 1.00 0.00 1.00 0.00 0.00 0.00 0.00 0.00 1.00 1.00 1.00 0.00 0.00 0.00 0.00 0.00 0.00 0.00 0.00 0.00 0.00 0.00 0.00 0.00 0.00 0.00 0.00 0.00 0.00 0.00 0.00 0.00 0.00 0.00 0.00 0.00 0.00 0.00 0.00 0.00 0.00 0.00 0.00 0.00 0.00 0.00 0.00 0.00 0.00 0.00 0.00 0.00 0.00 0.00 0.00 0.00 0.00 1.00 1.00 1.00 4.00 8.00 4.00 2.00 1.00 2.00 5.00 10.00 10.00 11.00 13.00 5.00 30.00 73.00 94.00 111.00 121.00 100.00 108.00 167.00 228.00 247.00 236.00 223.00 229.00 216.00 180.00 143.00 133.00 119.00 120.00 117.00 135.00 168.00 185.00 188.00 191.00 196.00 191.00 166.00 143.00 121.00 114.00 141.00 186.00 211.00 239.00 269.00 322.00 351.00 370.00 307.00 248.00 251.00 220.00 209.00 186.00 174.00 137.00 118.00 101.00 83.00 72.00 63.00 61.00 51.00 46.00 36.00 25.00 10.00 2.00 4.00 6.00 7.00 7.00 5.00 4.00 3.00 3.00 1.00 2.00 1.00 2.00 1.00 0.00 0.00 0.00 0.00 1.00 0.00 0.00 0.00 0.00 0.00 0.00 0.00 0.00 0.00 0.00 0.00 0.00 0.00 0.00 0.00 0.00 0.00 0.00 0.00 0.00 0.00 0.00 0.00 0.00 0.00 0.00 0.00 0.00 0.00 0.00 0.00 0.00 0.00 0.00 0.00 0.00 0.00 0.00 0.00 0.00 0.00 0.00 0.00 0.00 0.00 0.00 0.00 0.00 1.00 1.00 2.00 3.00 10.00 4.00 2.00 4.00 6.00 10.00 12.00 9.00 5.00 10.00 27.00 61.00 93.00 110.00 99.00 95.00 118.00 133.00 188.00 216.00 201.00 166.00 124.00 103.00 122.00 138.00 162.00 182.00 205.00 212.00 208.00 221.00 251.00 268.00 259.00 256.00 268.00 271.00 264.00 235.00 199.00 183.00 181.00 185.00 174.00 126.00 89.00 141.00 171.00 223.00 257.00 301.00 314.00 292.00 274.00 268.00 282.00 275.00 220.00 179.00 114.00 97.00 70.00 62.00 57.00 60.00 69.00 57.00 46.00 26.00 21.00 8.00 6.00 4.00 3.00 3.00 2.00 2.00 2.00 3.00 1.00 3.00 1.00 1.00 0.00 1.00 1.00 1.00 0.00 0.00 0.00 0.00 0.00 0.00 0.00 0.00 0.00 0.00 0.00 0.00 0.00 0.00 0.00 0.00 0.00 0.00 0.00 0.00 0.00 0.00 0.00 0.00 0.00 0.00 0.00 0.00 0.00 0.00 0.00 0.00 0.00 0.00 0.00 0.00 0.00 0.00 0.00 0.00 0.00 0.00 0.00 0.00 0.00 0.00 0.00 0.00 1.00 2.00 4.00 3.00 5.00 3.00 5.00 8.00 8.00 7.00 3.00 11.00 33.00 55.00 64.00 73.00 98.00 112.00 87.00 86.00 136.00 175.00 170.00 150.00 132.00 100.00 123.00 166.00 208.00 246.00 273.00 296.00 304.00 301.00 299.00 305.00 309.00 305.00 303.00 304.00 306.00 304.00 306.00 305.00 294.00 270.00 255.00 244.00 231.00 203.00 199.00 177.00 153.00 92.00 80.00 133.00 182.00 240.00 280.00 308.00 336.00 328.00 321.00 316.00 271.00 194.00 143.00 109.00 85.00 88.00 87.00 66.00 51.00 45.00 45.00 34.00 21.00 15.00 10.00 6.00 14.00 16.00 2.00 2.00 2.00 3.00 3.00 2.00 2.00 3.00 3.00 1.00 1.00 1.00 1.00 1.00 0.00 1.00 0.00 0.00 0.00 0.00 0.00 0.00 0.00 0.00 1.00 1.00 2.00 2.00 1.00 1.00 0.00 0.00 0.00 0.00 0.00 0.00 0.00 0.00 0.00 0.00 0.00 0.00 0.00 0.00 0.00 0.00 0.00 0.00 0.00 0.00 0.00 0.00 0.00 0.00 0.00 0.00 0.00 0.00 1.00 1.00 4.00 4.00 3.00 2.00 4.00 4.00 4.00 15.00 37.00 55.00 68.00 81.00 84.00 75.00 90.00 102.00 89.00 99.00 130.00 148.00 124.00 97.00 108.00 149.00 193.00 230.00 259.00 288.00 292.00 295.00 295.00 306.00 303.00 309.00 312.00 309.00 311.00 312.00 311.00 312.00 316.00 316.00 310.00 303.00 302.00 305.00 296.00 273.00 252.00 224.00 207.00 190.00 167.00 127.00 86.00 101.00 150.00 173.00 232.00 272.00 319.00 347.00 354.00 342.00 325.00 292.00 202.00 166.00 121.00 94.00 63.00 67.00 58.00 42.00 29.00 39.00 42.00 45.00 53.00 36.00 21.00 3.00 1.00 2.00 3.00 5.00 3.00 4.00 4.00 3.00 2.00 2.00 2.00 3.00 1.00 1.00 0.00 0.00 0.00 1.00 0.00 0.00 0.00 1.00 1.00 2.00 2.00 2.00 1.00 1.00 0.00 0.00 0.00 0.00 0.00 0.00 0.00 0.00 0.00 0.00 0.00 0.00 0.00 0.00 0.00 0.00 0.00 0.00 0.00 0.00 0.00 0.00 0.00 0.00 0.00 0.00 0.00 0.00 2.00 1.00 2.00 2.00 5.00 10.00 3.00 7.00 26.00 59.00 71.00 89.00 87.00 84.00 72.00 71.00 78.00 99.00 101.00 101.00 106.00 117.00 110.00 128.00 169.00 209.00 244.00 274.00 274.00 288.00 278.00 275.00 279.00 284.00 284.00 281.00 283.00 291.00 298.00 299.00 297.00 303.00 310.00 313.00 314.00 309.00 307.00 314.00 310.00 313.00 315.00 305.00 276.00 246.00 215.00 170.00 137.00 110.00 91.00 82.00 122.00 164.00 206.00 252.00 286.00 360.00 387.00 390.00 331.00 304.00 254.00 200.00 154.00 124.00 109.00 63.00 57.00 45.00 45.00 45.00 57.00 39.00 31.00 13.00 10.00 3.00 0.00 5.00 3.00 4.00 4.00 4.00 2.00 3.00 2.00 3.00 1.00 1.00 0.00 1.00 1.00 1.00 1.00 0.00 0.00 0.00 0.00 0.00 0.00 0.00 0.00 0.00 0.00 0.00 0.00 0.00 0.00 0.00 0.00 0.00 0.00 0.00 0.00 0.00 0.00 0.00 0.00 0.00 0.00 0.00 0.00 0.00 0.00 0.00 0.00 0.00 0.00 0.00 0.00 0.00 3.00 2.00 1.00 1.00 8.00 21.00 35.00 49.00 67.00 82.00 88.00 95.00 88.00 80.00 88.00 101.00 133.00 113.00 116.00 104.00 103.00 108.00 108.00 145.00 196.00 231.00 263.00 266.00 273.00 281.00 274.00 270.00 260.00 260.00 263.00 267.00 270.00 273.00 278.00 284.00 288.00 291.00 295.00 296.00 299.00 302.00 309.00 317.00 324.00 318.00 327.00 329.00 333.00 336.00 321.00 280.00 230.00 172.00 139.00 117.00 93.00 89.00 117.00 168.00 201.00 241.00 254.00 310.00 382.00 405.00 390.00 343.00 312.00 261.00 231.00 161.00 106.00 83.00 93.00 74.00 67.00 52.00 36.00 17.00 19.00 20.00 14.00 9.00 3.00 3.00 3.00 2.00 2.00 2.00 1.00 0.00 0.00 0.00 0.00 1.00 1.00 1.00 0.00 0.00 1.00 0.00 1.00 1.00 0.00 0.00 1.00 0.00 0.00 0.00 0.00 0.00 0.00 0.00 0.00 0.00 0.00 0.00 0.00 0.00 0.00 0.00 0.00 0.00 0.00 0.00 0.00 0.00 0.00 0.00 0.00 0.00 0.00 0.00 0.00 0.00 6.00 6.00 3.00 3.00 12.00 27.00 60.00 72.00 89.00 90.00 76.00 69.00 76.00 87.00 122.00 141.00 172.00 130.00 136.00 115.00 114.00 119.00 111.00 148.00 198.00 237.00 251.00 250.00 263.00 263.00 255.00 252.00 248.00 250.00 254.00 262.00 270.00 273.00 274.00 276.00 278.00 285.00 289.00 293.00 291.00 295.00 301.00 298.00 292.00 295.00 316.00 334.00 340.00 344.00 343.00 344.00 352.00 341.00 297.00 250.00 203.00 152.00 99.00 106.00 152.00 186.00 197.00 230.00 252.00 289.00 310.00 315.00 310.00 285.00 248.00 222.00 161.00 160.00 150.00 116.00 80.00 65.00 68.00 54.00 43.00 50.00 33.00 32.00 18.00 12.00 4.00 3.00 2.00 3.00 2.00 0.00 0.00 1.00 1.00 1.00 1.00 1.00 0.00 0.00 1.00 1.00 1.00 0.00 0.00 0.00 0.00 0.00 0.00 0.00 0.00 0.00 0.00 0.00 0.00 0.00 0.00 0.00 0.00 0.00 0.00 0.00 0.00 0.00 0.00 0.00 0.00 0.00 0.00 0.00 0.00 0.00 0.00 0.00 0.00 0.00 6.00 6.00 3.00 6.00 34.00 60.00 76.00 78.00 81.00 78.00 68.00 75.00 100.00 116.00 157.00 186.00 202.00 179.00 168.00 161.00 164.00 149.00 124.00 126.00 157.00 206.00 232.00 242.00 258.00 265.00 263.00 258.00 254.00 256.00 259.00 265.00 271.00 273.00 275.00 278.00 281.00 286.00 291.00 289.00 287.00 292.00 300.00 300.00 295.00 297.00 299.00 302.00 306.00 320.00 334.00 344.00 354.00 350.00 360.00 366.00 345.00 311.00 260.00 199.00 108.00 83.00 140.00 179.00 216.00 249.00 257.00 240.00 224.00 222.00 243.00 268.00 266.00 261.00 260.00 205.00 156.00 74.00 72.00 67.00 59.00 60.00 58.00 49.00 33.00 26.00 10.00 4.00 3.00 5.00 5.00 6.00 8.00 7.00 7.00 5.00 2.00 2.00 0.00 0.00 0.00 0.00 0.00 0.00 0.00 0.00 0.00 0.00 0.00 0.00 0.00 0.00 0.00 0.00 0.00 0.00 0.00 0.00 0.00 0.00 0.00 0.00 0.00 0.00 0.00 0.00 0.00 0.00 0.00 0.00 0.00 0.00 0.00 0.00 0.00 0.00 2.00 4.00 3.00 7.00 20.00 59.00 78.00 91.00 79.00 60.00 64.00 89.00 113.00 144.00 177.00 211.00 221.00 215.00 217.00 200.00 196.00 176.00 153.00 133.00 119.00 150.00 200.00 222.00 248.00 257.00 247.00 232.00 227.00 228.00 224.00 231.00 239.00 246.00 259.00 270.00 281.00 290.00 295.00 294.00 290.00 289.00 289.00 292.00 292.00 297.00 300.00 300.00 302.00 312.00 318.00 323.00 325.00 340.00 345.00 353.00 354.00 365.00 361.00 341.00 318.00 271.00 198.00 100.00 99.00 164.00 211.00 230.00 249.00 284.00 326.00 334.00 348.00 321.00 315.00 290.00 245.00 177.00 146.00 101.00 69.00 55.00 63.00 57.00 70.00 55.00 41.00 28.00 17.00 12.00 6.00 8.00 9.00 10.00 11.00 14.00 13.00 10.00 3.00 1.00 1.00 0.00 0.00 0.00 1.00 0.00 0.00 0.00 0.00 0.00 0.00 0.00 0.00 0.00 0.00 0.00 0.00 0.00 0.00 0.00 0.00 0.00 0.00 0.00 0.00 0.00 0.00 0.00 0.00 0.00 0.00 0.00 0.00 0.00 0.00 0.00 3.00 3.00 2.00 4.00 17.00 56.00 86.00 99.00 82.00 61.00 73.00 100.00 150.00 191.00 205.00 235.00 246.00 252.00 230.00 191.00 187.00 181.00 165.00 149.00 114.00 107.00 105.00 137.00 170.00 203.00 219.00 234.00 237.00 240.00 237.00 236.00 241.00 246.00 254.00 258.00 261.00 265.00 262.00 263.00 263.00 269.00 279.00 288.00 286.00 286.00 293.00 301.00 306.00 316.00 314.00 315.00 306.00 300.00 308.00 315.00 332.00 343.00 345.00 350.00 362.00 342.00 312.00 275.00 211.00 128.00 90.00 141.00 198.00 257.00 314.00 319.00 335.00 341.00 329.00 331.00 316.00 273.00 256.00 215.00 157.00 90.00 73.00 60.00 63.00 48.00 49.00 48.00 38.00 25.00 13.00 9.00 6.00 8.00 10.00 14.00 14.00 14.00 14.00 14.00 9.00 4.00 2.00 1.00 0.00 0.00 0.00 1.00 1.00 0.00 0.00 0.00 0.00 0.00 0.00 0.00 0.00 0.00 0.00 0.00 0.00 0.00 0.00 0.00 0.00 0.00 0.00 0.00 0.00 0.00 0.00 1.00 0.00 0.00 0.00 0.00 1.00 1.00 2.00 3.00 25.00 56.00 88.00 99.00 81.00 68.00 75.00 108.00 174.00 211.00 220.00 237.00 235.00 215.00 194.00 175.00 173.00 173.00 165.00 154.00 129.00 130.00 123.00 139.00 176.00 208.00 218.00 220.00 228.00 238.00 240.00 241.00 248.00 254.00 264.00 270.00 273.00 269.00 264.00 267.00 270.00 278.00 288.00 295.00 289.00 285.00 285.00 288.00 295.00 300.00 296.00 302.00 295.00 293.00 297.00 308.00 318.00 331.00 335.00 343.00 353.00 355.00 353.00 342.00 313.00 288.00 240.00 186.00 143.00 89.00 100.00 184.00 244.00 289.00 308.00 334.00 339.00 309.00 301.00 257.00 237.00 192.00 145.00 99.00 72.00 47.00 41.00 52.00 48.00 58.00 51.00 33.00 16.00 7.00 3.00 5.00 7.00 10.00 13.00 14.00 12.00 10.00 9.00 5.00 3.00 1.00 1.00 1.00 2.00 0.00 0.00 0.00 0.00 0.00 0.00 0.00 0.00 0.00 0.00 0.00 0.00 0.00 0.00 0.00 0.00 0.00 0.00 0.00 0.00 0.00 1.00 1.00 0.00 0.00 0.00 0.00 2.00 1.00 3.00 3.00 20.00 46.00 77.00 92.00 75.00 80.00 68.00 112.00 178.00 217.00 226.00 214.00 209.00 212.00 203.00 199.00 177.00 160.00 153.00 156.00 150.00 160.00 179.00 204.00 217.00 229.00 227.00 209.00 186.00 189.00 205.00 218.00 225.00 234.00 243.00 255.00 262.00 261.00 259.00 266.00 272.00 282.00 284.00 281.00 269.00 263.00 267.00 282.00 286.00 293.00 296.00 292.00 282.00 269.00 275.00 287.00 297.00 308.00 326.00 341.00 340.00 339.00 346.00 362.00 363.00 339.00 295.00 256.00 216.00 172.00 149.00 112.00 116.00 149.00 186.00 218.00 260.00 284.00 290.00 278.00 240.00 199.00 160.00 130.00 102.00 64.00 39.00 44.00 44.00 60.00 57.00 56.00 45.00 29.00 19.00 5.00 4.00 3.00 5.00 7.00 8.00 10.00 14.00 14.00 10.00 7.00 4.00 2.00 1.00 0.00 1.00 0.00 1.00 0.00 0.00 0.00 0.00 0.00 0.00 0.00 0.00 0.00 0.00 0.00 0.00 0.00 0.00 0.00 0.00 0.00 1.00 1.00 1.00 0.00 0.00 0.00 2.00 1.00 2.00 3.00 3.00 20.00 49.00 81.00 85.00 89.00 65.00 99.00 177.00 221.00 235.00 221.00 214.00 225.00 208.00 201.00 173.00 157.00 151.00 169.00 207.00 232.00 241.00 239.00 243.00 246.00 249.00 254.00 255.00 249.00 243.00 246.00 251.00 250.00 240.00 237.00 242.00 243.00 245.00 248.00 247.00 247.00 244.00 243.00 249.00 251.00 260.00 270.00 276.00 276.00 284.00 276.00 277.00 272.00 274.00 272.00 271.00 278.00 292.00 305.00 308.00 307.00 325.00 350.00 357.00 343.00 341.00 338.00 310.00 270.00 233.00 211.00 169.00 107.00 120.00 141.00 158.00 187.00 240.00 323.00 286.00 241.00 170.00 149.00 110.00 101.00 53.00 63.00 31.00 38.00 43.00 61.00 61.00 55.00 51.00 39.00 23.00 9.00 7.00 6.00 7.00 9.00 14.00 16.00 16.00 14.00 9.00 6.00 3.00 0.00 1.00 0.00 1.00 0.00 0.00 0.00 0.00 0.00 0.00 0.00 0.00 0.00 0.00 0.00 0.00 0.00 0.00 0.00 0.00 0.00 0.00 0.00 0.00 0.00 0.00 0.00 2.00 1.00 5.00 4.00 2.00 8.00 37.00 63.00 86.00 94.00 76.00 70.00 147.00 219.00 242.00 242.00 231.00 235.00 213.00 205.00 186.00 179.00 163.00 164.00 205.00 234.00 241.00 241.00 245.00 249.00 252.00 259.00 262.00 266.00 269.00 275.00 276.00 274.00 268.00 263.00 271.00 262.00 258.00 260.00 258.00 255.00 253.00 252.00 260.00 260.00 261.00 264.00 269.00 269.00 273.00 272.00 277.00 276.00 283.00 280.00 276.00 284.00 297.00 310.00 311.00 308.00 311.00 321.00 330.00 333.00 341.00 339.00 323.00 294.00 278.00 274.00 253.00 183.00 113.00 119.00 150.00 139.00 174.00 280.00 288.00 284.00 212.00 204.00 153.00 129.00 78.00 70.00 41.00 40.00 42.00 56.00 58.00 59.00 54.00 53.00 44.00 36.00 21.00 13.00 9.00 8.00 11.00 15.00 15.00 16.00 12.00 9.00 5.00 1.00 1.00 0.00 0.00 0.00 0.00 0.00 0.00 0.00 0.00 0.00 0.00 0.00 0.00 0.00 0.00 0.00 0.00 0.00 0.00 0.00 0.00 0.00 1.00 0.00 0.00 0.00 2.00 0.00 5.00 4.00 1.00 1.00 15.00 46.00 83.00 101.00 81.00 70.00 104.00 175.00 218.00 237.00 232.00 236.00 217.00 211.00 208.00 203.00 181.00 160.00 190.00 223.00 238.00 239.00 235.00 240.00 242.00 248.00 249.00 254.00 259.00 263.00 266.00 271.00 274.00 271.00 280.00 279.00 280.00 285.00 284.00 283.00 287.00 288.00 294.00 291.00 282.00 280.00 276.00 278.00 280.00 278.00 273.00 269.00 270.00 274.00 280.00 287.00 297.00 305.00 304.00 308.00 303.00 316.00 316.00 327.00 337.00 340.00 348.00 352.00 336.00 308.00 281.00 243.00 215.00 177.00 145.00 97.00 121.00 203.00 240.00 289.00 267.00 236.00 201.00 145.00 108.00 80.00 47.00 49.00 49.00 47.00 50.00 51.00 48.00 49.00 44.00 44.00 40.00 31.00 20.00 11.00 6.00 7.00 10.00 14.00 13.00 10.00 7.00 3.00 1.00 1.00 0.00 1.00 0.00 0.00 0.00 0.00 0.00 0.00 0.00 0.00 0.00 0.00 0.00 0.00 0.00 0.00 0.00 0.00 0.00 0.00 0.00 0.00 0.00 0.00 1.00 1.00 7.00 7.00 2.00 3.00 4.00 7.00 56.00 98.00 96.00 76.00 64.00 114.00 172.00 215.00 216.00 235.00 224.00 214.00 202.00 201.00 190.00 160.00 148.00 175.00 216.00 229.00 230.00 232.00 240.00 249.00 251.00 254.00 259.00 262.00 260.00 262.00 266.00 267.00 273.00 277.00 277.00 282.00 285.00 288.00 289.00 290.00 295.00 294.00 293.00 294.00 288.00 295.00 297.00 295.00 279.00 271.00 277.00 