# vtk DataFile Version 2.0
VTK from Matlab
ASCII
DATASET STRUCTURED_POINTS
DIMENSIONS 140 68 44
SPACING 1 1 1
ORIGIN 0 0 0
POINT_DATA 418880
SCALARS mag float 1
LOOKUP_TABLE default
0.00 0.00 0.00 0.00 1.00 0.00 1.00 0.00 0.00 0.00 1.00 0.00 0.00 0.00 1.00 1.00 1.00 0.00 1.00 1.00 1.00 0.00 0.00 0.00 0.00 0.00 0.00 0.00 0.00 0.00 0.00 0.00 0.00 0.00 0.00 0.00 0.00 0.00 0.00 0.00 0.00 0.00 0.00 0.00 0.00 0.00 0.00 0.00 0.00 0.00 0.00 0.00 0.00 0.00 0.00 0.00 0.00 0.00 0.00 0.00 0.00 0.00 0.00 0.00 0.00 0.00 0.00 0.00 0.00 0.00 0.00 0.00 0.00 0.00 0.00 0.00 0.00 0.00 0.00 0.00 0.00 0.00 0.00 0.00 0.00 0.00 0.00 0.00 0.00 0.00 0.00 0.00 0.00 0.00 0.00 0.00 0.00 0.00 0.00 0.00 0.00 0.00 0.00 0.00 0.00 0.00 0.00 0.00 0.00 0.00 0.00 0.00 0.00 0.00 0.00 0.00 0.00 0.00 0.00 0.00 0.00 0.00 0.00 0.00 0.00 0.00 0.00 0.00 0.00 0.00 0.00 0.00 0.00 0.00 0.00 0.00 0.00 0.00 0.00 0.00 0.00 0.00 0.00 0.00 1.00 1.00 2.00 1.00 0.00 0.00 1.00 0.00 0.00 0.00 1.00 0.00 0.00 0.00 1.00 1.00 1.00 0.00 0.00 0.00 1.00 1.00 0.00 0.00 0.00 0.00 0.00 0.00 0.00 0.00 0.00 0.00 0.00 0.00 0.00 0.00 0.00 0.00 0.00 0.00 0.00 0.00 0.00 0.00 0.00 0.00 0.00 0.00 0.00 0.00 0.00 0.00 0.00 0.00 0.00 0.00 0.00 0.00 0.00 0.00 0.00 0.00 0.00 0.00 0.00 0.00 0.00 0.00 0.00 0.00 0.00 0.00 0.00 0.00 0.00 0.00 0.00 0.00 0.00 0.00 0.00 0.00 0.00 0.00 0.00 0.00 0.00 0.00 0.00 0.00 0.00 0.00 0.00 0.00 0.00 0.00 0.00 0.00 0.00 0.00 0.00 0.00 0.00 0.00 0.00 0.00 0.00 0.00 0.00 0.00 0.00 0.00 0.00 0.00 0.00 0.00 0.00 0.00 0.00 0.00 0.00 0.00 0.00 0.00 0.00 0.00 0.00 0.00 0.00 0.00 0.00 0.00 0.00 0.00 0.00 0.00 0.00 0.00 0.00 0.00 1.00 2.00 2.00 0.00 0.00 1.00 1.00 1.00 1.00 1.00 0.00 0.00 0.00 0.00 0.00 0.00 0.00 0.00 0.00 0.00 1.00 1.00 0.00 0.00 0.00 1.00 0.00 0.00 0.00 0.00 0.00 0.00 0.00 0.00 0.00 0.00 0.00 0.00 0.00 0.00 0.00 0.00 0.00 0.00 0.00 0.00 0.00 0.00 0.00 0.00 0.00 0.00 0.00 0.00 0.00 0.00 0.00 0.00 0.00 0.00 0.00 0.00 0.00 0.00 0.00 0.00 0.00 0.00 0.00 0.00 0.00 0.00 0.00 0.00 0.00 0.00 0.00 0.00 0.00 0.00 0.00 0.00 0.00 0.00 0.00 0.00 0.00 0.00 0.00 0.00 0.00 0.00 0.00 0.00 0.00 0.00 0.00 0.00 0.00 0.00 0.00 0.00 0.00 0.00 0.00 0.00 0.00 0.00 0.00 0.00 0.00 0.00 0.00 0.00 0.00 0.00 0.00 0.00 0.00 0.00 0.00 0.00 0.00 0.00 0.00 0.00 0.00 0.00 0.00 0.00 0.00 0.00 0.00 0.00 0.00 0.00 0.00 0.00 0.00 0.00 1.00 2.00 2.00 1.00 0.00 1.00 1.00 1.00 1.00 1.00 1.00 1.00 1.00 1.00 1.00 0.00 0.00 0.00 0.00 0.00 0.00 0.00 0.00 0.00 0.00 0.00 0.00 0.00 0.00 0.00 0.00 0.00 0.00 0.00 0.00 0.00 0.00 0.00 0.00 0.00 0.00 0.00 0.00 0.00 0.00 0.00 0.00 0.00 0.00 0.00 0.00 0.00 0.00 0.00 0.00 0.00 0.00 0.00 0.00 0.00 0.00 0.00 0.00 0.00 0.00 0.00 0.00 0.00 0.00 0.00 0.00 0.00 0.00 0.00 0.00 0.00 0.00 0.00 0.00 0.00 0.00 0.00 0.00 0.00 0.00 0.00 0.00 0.00 0.00 0.00 0.00 0.00 0.00 0.00 0.00 0.00 0.00 0.00 0.00 0.00 0.00 0.00 0.00 0.00 0.00 0.00 0.00 0.00 0.00 0.00 0.00 0.00 0.00 0.00 0.00 0.00 0.00 0.00 0.00 0.00 0.00 0.00 0.00 0.00 0.00 0.00 0.00 0.00 0.00 0.00 0.00 0.00 0.00 0.00 0.00 0.00 0.00 0.00 0.00 0.00 1.00 2.00 2.00 1.00 0.00 0.00 0.00 1.00 1.00 2.00 1.00 1.00 2.00 2.00 1.00 1.00 1.00 0.00 0.00 0.00 0.00 0.00 0.00 1.00 1.00 0.00 0.00 0.00 0.00 0.00 0.00 0.00 0.00 0.00 0.00 0.00 0.00 0.00 0.00 0.00 0.00 0.00 0.00 0.00 0.00 0.00 0.00 0.00 0.00 0.00 0.00 0.00 0.00 0.00 0.00 0.00 0.00 0.00 0.00 0.00 0.00 0.00 0.00 0.00 0.00 0.00 0.00 0.00 0.00 0.00 0.00 0.00 0.00 0.00 0.00 0.00 0.00 0.00 0.00 0.00 0.00 0.00 0.00 0.00 0.00 0.00 0.00 0.00 0.00 0.00 0.00 0.00 0.00 0.00 0.00 0.00 0.00 0.00 0.00 0.00 0.00 0.00 0.00 0.00 0.00 0.00 0.00 0.00 0.00 0.00 0.00 0.00 0.00 0.00 0.00 0.00 0.00 0.00 0.00 0.00 0.00 0.00 0.00 0.00 0.00 0.00 0.00 0.00 0.00 0.00 0.00 0.00 0.00 0.00 0.00 0.00 0.00 0.00 0.00 0.00 0.00 2.00 2.00 1.00 0.00 0.00 1.00 1.00 0.00 1.00 1.00 1.00 2.00 2.00 1.00 1.00 0.00 0.00 0.00 0.00 0.00 0.00 0.00 1.00 1.00 0.00 0.00 0.00 0.00 0.00 0.00 0.00 0.00 0.00 0.00 0.00 0.00 0.00 0.00 0.00 0.00 0.00 0.00 0.00 0.00 0.00 0.00 0.00 0.00 0.00 0.00 0.00 0.00 0.00 0.00 0.00 0.00 0.00 0.00 0.00 0.00 0.00 0.00 0.00 0.00 0.00 0.00 0.00 0.00 0.00 0.00 0.00 0.00 0.00 0.00 0.00 0.00 0.00 0.00 0.00 0.00 0.00 0.00 0.00 0.00 0.00 0.00 0.00 0.00 0.00 0.00 0.00 0.00 0.00 0.00 0.00 0.00 0.00 0.00 0.00 0.00 0.00 0.00 0.00 0.00 0.00 0.00 0.00 0.00 0.00 0.00 0.00 0.00 0.00 0.00 0.00 0.00 0.00 0.00 0.00 0.00 0.00 0.00 0.00 0.00 0.00 0.00 0.00 0.00 0.00 0.00 0.00 0.00 0.00 0.00 0.00 0.00 0.00 0.00 0.00 0.00 1.00 1.00 1.00 0.00 0.00 1.00 1.00 1.00 0.00 0.00 1.00 1.00 1.00 1.00 0.00 0.00 0.00 0.00 0.00 0.00 0.00 0.00 1.00 1.00 0.00 0.00 0.00 0.00 0.00 0.00 0.00 0.00 0.00 0.00 0.00 0.00 0.00 0.00 0.00 0.00 0.00 0.00 0.00 0.00 0.00 0.00 0.00 0.00 0.00 0.00 0.00 0.00 0.00 0.00 0.00 0.00 0.00 0.00 0.00 0.00 0.00 0.00 0.00 0.00 0.00 0.00 0.00 0.00 0.00 0.00 0.00 0.00 0.00 0.00 0.00 0.00 0.00 0.00 0.00 0.00 0.00 0.00 0.00 0.00 0.00 0.00 0.00 0.00 0.00 0.00 0.00 0.00 0.00 0.00 0.00 0.00 0.00 0.00 0.00 0.00 0.00 0.00 0.00 0.00 0.00 0.00 0.00 0.00 0.00 0.00 0.00 0.00 0.00 0.00 0.00 0.00 0.00 0.00 0.00 0.00 0.00 0.00 0.00 0.00 0.00 0.00 0.00 0.00 0.00 0.00 0.00 0.00 0.00 0.00 0.00 0.00 0.00 0.00 1.00 1.00 1.00 1.00 1.00 1.00 1.00 2.00 1.00 1.00 1.00 0.00 1.00 1.00 1.00 1.00 0.00 0.00 0.00 0.00 0.00 0.00 0.00 1.00 1.00 1.00 0.00 0.00 0.00 0.00 0.00 0.00 0.00 0.00 0.00 0.00 0.00 0.00 0.00 0.00 0.00 0.00 0.00 0.00 0.00 0.00 0.00 0.00 0.00 0.00 0.00 0.00 0.00 0.00 0.00 0.00 0.00 0.00 0.00 0.00 0.00 0.00 0.00 0.00 0.00 0.00 0.00 0.00 0.00 0.00 0.00 0.00 0.00 0.00 0.00 0.00 0.00 0.00 0.00 0.00 0.00 0.00 0.00 0.00 0.00 0.00 0.00 0.00 0.00 0.00 0.00 0.00 0.00 0.00 0.00 0.00 0.00 0.00 0.00 0.00 0.00 0.00 0.00 0.00 0.00 0.00 0.00 0.00 0.00 0.00 0.00 0.00 0.00 0.00 0.00 0.00 0.00 0.00 0.00 0.00 0.00 0.00 0.00 0.00 0.00 0.00 0.00 0.00 0.00 0.00 0.00 0.00 0.00 0.00 0.00 0.00 0.00 0.00 0.00 0.00 1.00 1.00 1.00 1.00 1.00 1.00 1.00 2.00 0.00 1.00 0.00 0.00 0.00 1.00 0.00 0.00 0.00 1.00 1.00 0.00 0.00 0.00 1.00 1.00 1.00 1.00 0.00 1.00 0.00 0.00 0.00 0.00 0.00 0.00 0.00 0.00 0.00 0.00 0.00 0.00 0.00 0.00 0.00 0.00 0.00 0.00 0.00 0.00 0.00 0.00 0.00 0.00 0.00 0.00 0.00 0.00 0.00 0.00 0.00 0.00 0.00 0.00 0.00 0.00 0.00 0.00 0.00 0.00 0.00 0.00 0.00 0.00 0.00 0.00 0.00 0.00 0.00 0.00 0.00 0.00 0.00 0.00 0.00 0.00 0.00 0.00 0.00 0.00 0.00 0.00 0.00 0.00 0.00 0.00 0.00 0.00 0.00 0.00 0.00 0.00 0.00 0.00 0.00 0.00 0.00 0.00 0.00 0.00 0.00 0.00 0.00 0.00 0.00 0.00 0.00 0.00 0.00 0.00 0.00 0.00 0.00 0.00 0.00 0.00 0.00 0.00 0.00 0.00 0.00 0.00 0.00 0.00 0.00 0.00 0.00 0.00 0.00 0.00 0.00 0.00 1.00 0.00 1.00 2.00 1.00 0.00 1.00 1.00 1.00 0.00 0.00 0.00 0.00 0.00 0.00 0.00 0.00 0.00 1.00 0.00 0.00 0.00 1.00 1.00 0.00 0.00 0.00 0.00 0.00 0.00 0.00 0.00 1.00 0.00 0.00 0.00 0.00 0.00 0.00 0.00 0.00 0.00 0.00 0.00 0.00 0.00 0.00 0.00 1.00 1.00 0.00 0.00 0.00 0.00 0.00 0.00 0.00 0.00 0.00 1.00 0.00 0.00 0.00 0.00 0.00 0.00 0.00 0.00 0.00 0.00 0.00 0.00 0.00 0.00 0.00 0.00 0.00 0.00 0.00 0.00 0.00 0.00 0.00 0.00 0.00 0.00 0.00 0.00 0.00 0.00 0.00 0.00 0.00 0.00 0.00 0.00 0.00 0.00 0.00 0.00 0.00 0.00 0.00 0.00 0.00 0.00 0.00 0.00 0.00 0.00 0.00 0.00 0.00 0.00 0.00 0.00 0.00 0.00 0.00 0.00 0.00 0.00 0.00 0.00 0.00 0.00 0.00 0.00 0.00 0.00 0.00 0.00 0.00 0.00 0.00 0.00 0.00 0.00 0.00 0.00 1.00 0.00 1.00 1.00 1.00 0.00 1.00 0.00 1.00 1.00 0.00 0.00 0.00 0.00 0.00 0.00 0.00 0.00 0.00 0.00 0.00 0.00 0.00 0.00 0.00 0.00 0.00 0.00 0.00 0.00 0.00 0.00 1.00 0.00 0.00 0.00 0.00 0.00 0.00 0.00 0.00 0.00 0.00 0.00 0.00 0.00 0.00 0.00 1.00 1.00 0.00 0.00 0.00 0.00 0.00 0.00 0.00 0.00 0.00 1.00 1.00 1.00 1.00 0.00 0.00 0.00 0.00 0.00 0.00 0.00 0.00 0.00 0.00 0.00 0.00 0.00 0.00 0.00 0.00 0.00 0.00 0.00 0.00 0.00 0.00 0.00 0.00 0.00 0.00 0.00 0.00 0.00 0.00 0.00 0.00 0.00 0.00 0.00 0.00 0.00 0.00 0.00 0.00 0.00 0.00 0.00 0.00 0.00 0.00 0.00 0.00 0.00 0.00 0.00 0.00 0.00 0.00 0.00 0.00 0.00 0.00 0.00 0.00 0.00 0.00 0.00 0.00 0.00 0.00 0.00 0.00 0.00 0.00 0.00 0.00 0.00 0.00 0.00 0.00 0.00 1.00 0.00 1.00 1.00 1.00 0.00 1.00 0.00 1.00 1.00 0.00 0.00 0.00 0.00 0.00 0.00 0.00 0.00 0.00 0.00 0.00 0.00 0.00 0.00 0.00 0.00 0.00 0.00 0.00 0.00 0.00 0.00 1.00 1.00 1.00 0.00 0.00 1.00 1.00 0.00 0.00 0.00 0.00 0.00 0.00 0.00 0.00 0.00 1.00 1.00 0.00 0.00 0.00 0.00 0.00 0.00 0.00 0.00 0.00 0.00 0.00 1.00 0.00 1.00 1.00 0.00 0.00 0.00 0.00 0.00 0.00 0.00 0.00 0.00 0.00 0.00 0.00 0.00 0.00 0.00 0.00 0.00 0.00 0.00 0.00 0.00 0.00 0.00 0.00 0.00 0.00 0.00 0.00 0.00 0.00 0.00 0.00 0.00 0.00 0.00 0.00 0.00 0.00 0.00 0.00 0.00 0.00 0.00 0.00 0.00 0.00 0.00 0.00 0.00 0.00 0.00 0.00 0.00 0.00 0.00 0.00 0.00 0.00 0.00 0.00 0.00 0.00 0.00 0.00 0.00 0.00 0.00 0.00 0.00 0.00 0.00 0.00 0.00 0.00 0.00 0.00 1.00 1.00 2.00 2.00 1.00 1.00 0.00 1.00 1.00 0.00 1.00 1.00 0.00 0.00 0.00 1.00 1.00 0.00 0.00 0.00 0.00 0.00 0.00 0.00 0.00 0.00 0.00 0.00 0.00 1.00 0.00 1.00 2.00 2.00 1.00 1.00 2.00 3.00 2.00 1.00 1.00 1.00 1.00 1.00 0.00 0.00 0.00 0.00 0.00 0.00 0.00 0.00 0.00 0.00 0.00 0.00 0.00 0.00 0.00 0.00 0.00 0.00 0.00 0.00 0.00 0.00 0.00 0.00 0.00 0.00 0.00 0.00 0.00 0.00 0.00 0.00 0.00 0.00 1.00 0.00 0.00 0.00 0.00 0.00 0.00 0.00 0.00 0.00 0.00 0.00 0.00 0.00 0.00 0.00 0.00 0.00 0.00 0.00 0.00 0.00 0.00 0.00 0.00 0.00 0.00 0.00 0.00 0.00 0.00 0.00 0.00 0.00 0.00 0.00 0.00 0.00 0.00 0.00 0.00 0.00 0.00 0.00 0.00 0.00 0.00 0.00 0.00 0.00 0.00 0.00 0.00 0.00 0.00 0.00 0.00 0.00 0.00 0.00 0.00 0.00 1.00 3.00 3.00 1.00 1.00 1.00 1.00 1.00 0.00 1.00 1.00 1.00 1.00 0.00 0.00 1.00 1.00 1.00 1.00 0.00 1.00 0.00 1.00 1.00 0.00 0.00 0.00 0.00 0.00 0.00 0.00 0.00 2.00 1.00 2.00 2.00 1.00 1.00 3.00 4.00 5.00 5.00 3.00 1.00 1.00 1.00 2.00 2.00 2.00 1.00 1.00 0.00 0.00 0.00 0.00 0.00 0.00 0.00 0.00 0.00 0.00 0.00 0.00 0.00 0.00 0.00 0.00 0.00 0.00 0.00 0.00 0.00 0.00 0.00 0.00 0.00 0.00 0.00 1.00 0.00 1.00 0.00 0.00 0.00 0.00 0.00 0.00 0.00 0.00 0.00 0.00 0.00 0.00 0.00 0.00 0.00 0.00 0.00 0.00 0.00 0.00 0.00 0.00 0.00 0.00 0.00 0.00 0.00 0.00 0.00 0.00 0.00 0.00 0.00 0.00 0.00 0.00 0.00 0.00 0.00 0.00 0.00 0.00 0.00 0.00 0.00 0.00 0.00 0.00 0.00 0.00 0.00 0.00 0.00 0.00 0.00 0.00 0.00 0.00 0.00 0.00 2.00 2.00 0.00 2.00 1.00 1.00 0.00 1.00 0.00 1.00 2.00 2.00 1.00 1.00 1.00 1.00 1.00 1.00 0.00 1.00 1.00 1.00 1.00 1.00 1.00 1.00 3.00 6.00 9.00 13.00 15.00 16.00 16.00 15.00 21.00 30.00 32.00 32.00 30.00 26.00 22.00 15.00 10.00 5.00 2.00 1.00 4.00 3.00 2.00 1.00 1.00 1.00 1.00 1.00 0.00 0.00 0.00 0.00 0.00 0.00 0.00 0.00 0.00 0.00 0.00 0.00 0.00 0.00 0.00 0.00 0.00 0.00 0.00 0.00 0.00 0.00 0.00 0.00 0.00 1.00 0.00 0.00 0.00 1.00 0.00 0.00 0.00 0.00 1.00 1.00 0.00 0.00 0.00 0.00 0.00 0.00 0.00 0.00 0.00 0.00 0.00 0.00 0.00 0.00 0.00 0.00 0.00 0.00 0.00 0.00 0.00 0.00 0.00 0.00 0.00 0.00 0.00 0.00 0.00 0.00 0.00 0.00 0.00 0.00 0.00 0.00 0.00 0.00 0.00 0.00 0.00 0.00 0.00 0.00 0.00 0.00 0.00 0.00 0.00 0.00 2.00 1.00 0.00 1.00 1.00 1.00 1.00 1.00 0.00 1.00 2.00 3.00 1.00 1.00 1.00 1.00 1.00 1.00 0.00 1.00 2.00 7.00 10.00 9.00 11.00 5.00 8.00 8.00 4.00 1.00 2.00 5.00 9.00 10.00 12.00 20.00 20.00 14.00 20.00 26.00 31.00 34.00 39.00 35.00 32.00 23.00 22.00 11.00 9.00 5.00 4.00 1.00 1.00 1.00 0.00 0.00 0.00 1.00 1.00 1.00 0.00 0.00 0.00 0.00 0.00 0.00 0.00 0.00 0.00 0.00 0.00 0.00 0.00 0.00 0.00 0.00 0.00 0.00 0.00 0.00 0.00 0.00 0.00 0.00 0.00 0.00 0.00 0.00 0.00 1.00 0.00 0.00 0.00 0.00 0.00 0.00 0.00 0.00 0.00 0.00 0.00 0.00 0.00 0.00 0.00 0.00 0.00 0.00 0.00 0.00 0.00 0.00 0.00 0.00 0.00 0.00 0.00 0.00 0.00 0.00 0.00 0.00 0.00 0.00 0.00 0.00 0.00 0.00 0.00 0.00 0.00 0.00 0.00 0.00 0.00 0.00 0.00 0.00 0.00 0.00 0.00 0.00 0.00 1.00 2.00 1.00 1.00 1.00 1.00 0.00 1.00 3.00 1.00 1.00 1.00 0.00 1.00 2.00 4.00 3.00 5.00 11.00 9.00 3.00 13.00 20.00 35.00 56.00 68.00 81.00 90.00 98.00 109.00 115.00 123.00 126.00 125.00 128.00 130.00 129.00 121.00 103.00 88.00 60.00 42.00 25.00 25.00 25.00 29.00 23.00 16.00 14.00 14.00 9.00 4.00 3.00 0.00 0.00 0.00 1.00 1.00 0.00 1.00 1.00 1.00 1.00 0.00 0.00 0.00 0.00 0.00 0.00 0.00 0.00 0.00 0.00 0.00 0.00 0.00 0.00 0.00 0.00 0.00 0.00 0.00 0.00 0.00 0.00 0.00 0.00 0.00 0.00 0.00 0.00 0.00 0.00 0.00 0.00 0.00 0.00 0.00 0.00 0.00 0.00 0.00 0.00 0.00 0.00 0.00 0.00 0.00 0.00 0.00 0.00 0.00 0.00 0.00 0.00 0.00 0.00 0.00 0.00 0.00 0.00 0.00 0.00 0.00 0.00 0.00 0.00 0.00 0.00 0.00 0.00 0.00 0.00 0.00 0.00 0.00 0.00 0.00 0.00 1.00 1.00 2.00 1.00 1.00 1.00 1.00 1.00 2.00 1.00 0.00 2.00 2.00 5.00 9.00 11.00 9.00 4.00 2.00 13.00 41.00 59.00 84.00 98.00 114.00 131.00 141.00 155.00 154.00 169.00 170.00 151.00 121.00 118.00 153.00 199.00 222.00 215.00 198.00 200.00 198.00 178.00 153.00 111.00 96.00 73.00 51.00 21.00 11.00 14.00 19.00 11.00 11.00 11.00 15.00 12.00 7.00 3.00 1.00 0.00 1.00 1.00 1.00 1.00 0.00 0.00 0.00 0.00 0.00 0.00 0.00 0.00 0.00 0.00 0.00 0.00 0.00 0.00 0.00 0.00 0.00 0.00 0.00 0.00 0.00 0.00 0.00 0.00 0.00 0.00 0.00 0.00 0.00 0.00 0.00 0.00 0.00 0.00 0.00 0.00 0.00 0.00 0.00 0.00 0.00 0.00 0.00 0.00 0.00 0.00 0.00 0.00 0.00 0.00 0.00 0.00 0.00 0.00 0.00 0.00 0.00 0.00 0.00 0.00 0.00 0.00 0.00 0.00 0.00 0.00 0.00 0.00 0.00 0.00 0.00 0.00 1.00 0.00 0.00 1.00 1.00 2.00 0.00 1.00 1.00 1.00 2.00 2.00 1.00 1.00 1.00 2.00 9.00 9.00 14.00 10.00 8.00 20.00 44.00 66.00 98.00 115.00 130.00 126.00 126.00 126.00 97.00 115.00 115.00 135.00 139.00 154.00 174.00 179.00 162.00 159.00 160.00 161.00 146.00 141.00 141.00 142.00 148.00 141.00 141.00 125.00 126.00 101.00 80.00 59.00 43.00 19.00 3.00 10.00 18.00 14.00 8.00 7.00 9.00 11.00 6.00 4.00 2.00 1.00 0.00 0.00 0.00 0.00 0.00 0.00 0.00 0.00 0.00 0.00 0.00 0.00 0.00 0.00 0.00 0.00 0.00 0.00 0.00 0.00 0.00 0.00 0.00 0.00 0.00 0.00 0.00 0.00 0.00 0.00 0.00 0.00 0.00 0.00 0.00 0.00 0.00 0.00 0.00 0.00 0.00 0.00 0.00 0.00 0.00 0.00 0.00 0.00 0.00 0.00 0.00 0.00 0.00 0.00 0.00 0.00 0.00 0.00 0.00 0.00 0.00 0.00 0.00 0.00 0.00 0.00 0.00 0.00 0.00 0.00 0.00 0.00 1.00 1.00 1.00 1.00 2.00 1.00 1.00 0.00 1.00 1.00 2.00 1.00 1.00 1.00 3.00 9.00 18.00 11.00 6.00 13.00 36.00 66.00 95.00 113.00 125.00 120.00 102.00 111.00 134.00 156.00 159.00 204.00 247.00 265.00 276.00 303.00 316.00 335.00 295.00 289.00 286.00 272.00 240.00 211.00 206.00 219.00 201.00 166.00 118.00 109.00 114.00 125.00 112.00 104.00 107.00 90.00 70.00 53.00 44.00 25.00 11.00 3.00 12.00 12.00 7.00 6.00 6.00 3.00 1.00 1.00 0.00 0.00 0.00 0.00 0.00 0.00 0.00 0.00 0.00 0.00 0.00 0.00 0.00 0.00 0.00 0.00 0.00 0.00 0.00 0.00 0.00 0.00 0.00 0.00 0.00 0.00 0.00 0.00 0.00 0.00 0.00 0.00 0.00 0.00 0.00 0.00 0.00 0.00 0.00 0.00 0.00 0.00 0.00 0.00 0.00 0.00 0.00 0.00 0.00 0.00 0.00 0.00 0.00 0.00 0.00 0.00 0.00 0.00 0.00 0.00 0.00 0.00 0.00 0.00 0.00 0.00 0.00 0.00 0.00 0.00 1.00 1.00 1.00 1.00 2.00 1.00 1.00 0.00 1.00 1.00 1.00 1.00 1.00 5.00 15.00 15.00 12.00 5.00 26.00 55.00 87.00 107.00 128.00 122.00 111.00 115.00 142.00 181.00 220.00 274.00 292.00 336.00 402.00 383.00 360.00 356.00 360.00 393.00 405.00 410.00 450.00 463.00 461.00 417.00 399.00 364.00 344.00 298.00 230.00 211.00 170.00 161.00 116.00 94.00 91.00 88.00 102.00 105.00 90.00 76.00 66.00 61.00 44.00 17.00 2.00 4.00 6.00 3.00 1.00 3.00 4.00 4.00 4.00 1.00 1.00 0.00 0.00 0.00 0.00 0.00 0.00 0.00 0.00 0.00 0.00 0.00 0.00 0.00 0.00 0.00 0.00 0.00 0.00 0.00 0.00 0.00 0.00 0.00 0.00 0.00 0.00 0.00 0.00 0.00 0.00 0.00 0.00 0.00 0.00 0.00 0.00 0.00 0.00 0.00 0.00 0.00 0.00 0.00 0.00 0.00 0.00 0.00 0.00 0.00 0.00 0.00 0.00 0.00 0.00 0.00 0.00 0.00 0.00 0.00 0.00 0.00 0.00 0.00 0.00 0.00 2.00 1.00 0.00 3.00 2.00 2.00 1.00 0.00 1.00 2.00 2.00 2.00 0.00 12.00 22.00 15.00 2.00 25.00 73.00 99.00 116.00 143.00 151.00 103.00 119.00 186.00 242.00 274.00 320.00 351.00 333.00 324.00 331.00 289.00 272.00 284.00 304.00 305.00 312.00 316.00 361.00 404.00 428.00 427.00 430.00 405.00 405.00 392.00 359.00 331.00 284.00 242.00 217.00 178.00 147.00 113.00 86.00 77.00 84.00 82.00 76.00 76.00 75.00 66.00 53.00 30.00 17.00 5.00 0.00 3.00 5.00 6.00 8.00 5.00 4.00 1.00 1.00 0.00 0.00 0.00 0.00 1.00 0.00 0.00 0.00 0.00 0.00 0.00 0.00 0.00 0.00 1.00 1.00 1.00 0.00 0.00 0.00 0.00 0.00 0.00 0.00 0.00 0.00 0.00 0.00 0.00 0.00 0.00 0.00 0.00 0.00 0.00 0.00 0.00 0.00 0.00 0.00 0.00 0.00 0.00 0.00 0.00 0.00 0.00 0.00 0.00 0.00 0.00 0.00 0.00 0.00 0.00 0.00 0.00 0.00 0.00 0.00 0.00 0.00 0.00 2.00 1.00 0.00 4.00 5.00 3.00 1.00 1.00 1.00 3.00 6.00 4.00 5.00 18.00 18.00 5.00 25.00 64.00 100.00 122.00 108.00 106.00 120.00 140.00 185.00 251.00 302.00 310.00 305.00 285.00 254.00 207.00 173.00 134.00 104.00 104.00 120.00 119.00 117.00 134.00 151.00 173.00 200.00 260.00 293.00 302.00 335.00 368.00 388.00 405.00 396.00 373.00 325.00 274.00 209.00 177.00 181.00 163.00 130.00 107.00 83.00 77.00 84.00 88.00 75.00 56.00 49.00 42.00 32.00 16.00 2.00 4.00 9.00 5.00 5.00 5.00 6.00 6.00 3.00 2.00 2.00 1.00 0.00 1.00 0.00 0.00 0.00 0.00 0.00 0.00 0.00 1.00 1.00 1.00 0.00 0.00 0.00 0.00 0.00 0.00 0.00 0.00 0.00 0.00 0.00 0.00 0.00 0.00 0.00 0.00 0.00 0.00 0.00 0.00 0.00 0.00 0.00 0.00 0.00 0.00 0.00 0.00 0.00 0.00 0.00 0.00 0.00 0.00 0.00 0.00 0.00 0.00 0.00 0.00 0.00 0.00 0.00 0.00 0.00 0.00 1.00 1.00 1.00 4.00 8.00 3.00 1.00 1.00 2.00 4.00 8.00 7.00 10.00 12.00 5.00 31.00 74.00 96.00 111.00 123.00 103.00 107.00 165.00 226.00 243.00 233.00 222.00 227.00 215.00 179.00 140.00 132.00 116.00 119.00 116.00 135.00 169.00 186.00 189.00 191.00 196.00 191.00 167.00 143.00 121.00 114.00 139.00 183.00 209.00 237.00 268.00 321.00 349.00 368.00 307.00 248.00 251.00 220.00 209.00 186.00 174.00 137.00 118.00 101.00 83.00 72.00 63.00 61.00 51.00 46.00 36.00 25.00 10.00 2.00 4.00 6.00 6.00 7.00 5.00 4.00 3.00 2.00 1.00 2.00 1.00 2.00 1.00 0.00 0.00 0.00 0.00 1.00 0.00 0.00 0.00 0.00 0.00 0.00 0.00 0.00 0.00 0.00 0.00 0.00 0.00 0.00 0.00 0.00 0.00 0.00 0.00 0.00 0.00 0.00 0.00 0.00 0.00 0.00 0.00 0.00 0.00 0.00 0.00 0.00 0.00 0.00 0.00 0.00 0.00 0.00 0.00 0.00 0.00 0.00 0.00 0.00 0.00 0.00 0.00 0.00 1.00 1.00 1.00 4.00 10.00 4.00 2.00 4.00 5.00 9.00 9.00 5.00 5.00 10.00 27.00 61.00 93.00 112.00 101.00 97.00 120.00 131.00 186.00 214.00 197.00 162.00 121.00 101.00 122.00 138.00 162.00 183.00 206.00 212.00 208.00 221.00 252.00 269.00 261.00 257.00 269.00 272.00 264.00 235.00 200.00 184.00 181.00 185.00 175.00 126.00 88.00 140.00 170.00 221.00 256.00 299.00 313.00 291.00 273.00 268.00 281.00 274.00 220.00 180.00 114.00 97.00 70.00 62.00 57.00 60.00 69.00 57.00 46.00 26.00 21.00 8.00 6.00 4.00 3.00 3.00 2.00 2.00 2.00 2.00 1.00 2.00 1.00 0.00 0.00 1.00 1.00 1.00 0.00 0.00 0.00 0.00 0.00 0.00 0.00 0.00 0.00 0.00 0.00 0.00 0.00 0.00 0.00 0.00 0.00 0.00 0.00 0.00 0.00 0.00 0.00 0.00 0.00 0.00 0.00 0.00 0.00 0.00 0.00 0.00 0.00 0.00 0.00 0.00 0.00 0.00 0.00 0.00 0.00 0.00 0.00 0.00 0.00 0.00 0.00 0.00 1.00 2.00 4.00 3.00 6.00 3.00 4.00 8.00 7.00 7.00 2.00 11.00 33.00 55.00 64.00 73.00 99.00 113.00 88.00 87.00 137.00 174.00 167.00 148.00 130.00 99.00 123.00 168.00 209.00 247.00 273.00 297.00 305.00 302.00 300.00 306.00 311.00 306.00 305.00 305.00 308.00 307.00 308.00 306.00 297.00 272.00 258.00 246.00 232.00 203.00 199.00 178.00 152.00 92.00 79.00 132.00 181.00 240.00 279.00 307.00 336.00 327.00 320.00 315.00 271.00 194.00 143.00 109.00 85.00 87.00 86.00 65.00 50.00 44.00 44.00 34.00 21.00 15.00 10.00 6.00 14.00 15.00 2.00 2.00 2.00 3.00 3.00 2.00 1.00 2.00 3.00 1.00 1.00 1.00 1.00 1.00 0.00 0.00 0.00 0.00 0.00 0.00 0.00 0.00 0.00 0.00 0.00 1.00 1.00 1.00 1.00 1.00 0.00 0.00 0.00 0.00 0.00 0.00 0.00 0.00 0.00 0.00 0.00 0.00 0.00 0.00 0.00 0.00 0.00 0.00 0.00 0.00 0.00 0.00 0.00 0.00 0.00 0.00 0.00 0.00 1.00 1.00 3.00 4.00 3.00 2.00 3.00 4.00 4.00 15.00 39.00 56.00 68.00 81.00 84.00 75.00 90.00 102.00 90.00 100.00 130.00 148.00 123.00 97.00 109.00 149.00 194.00 231.00 259.00 288.00 292.00 295.00 295.00 306.00 303.00 308.00 311.00 309.00 311.00 312.00 311.00 313.00 317.00 318.00 313.00 305.00 305.00 308.00 298.00 277.00 253.00 226.00 208.00 192.00 167.00 127.00 86.00 100.00 150.00 172.00 232.00 272.00 319.00 347.00 354.00 342.00 325.00 292.00 202.00 166.00 121.00 94.00 62.00 66.00 57.00 41.00 29.00 39.00 41.00 44.00 53.00 35.00 20.00 3.00 1.00 2.00 3.00 4.00 3.00 3.00 3.00 3.00 1.00 2.00 2.00 2.00 0.00 1.00 0.00 0.00 0.00 0.00 0.00 0.00 0.00 0.00 1.00 1.00 1.00 1.00 1.00 0.00 0.00 0.00 0.00 0.00 0.00 0.00 0.00 0.00 0.00 0.00 0.00 0.00 0.00 0.00 0.00 0.00 0.00 0.00 0.00 0.00 0.00 0.00 0.00 0.00 0.00 0.00 0.00 0.00 2.00 1.00 1.00 0.00 5.00 10.00 3.00 7.00 26.00 61.00 73.00 89.00 86.00 84.00 72.00 71.00 78.00 98.00 101.00 101.00 105.00 117.00 110.00 128.00 168.00 209.00 245.00 275.00 274.00 288.00 279.00 275.00 279.00 284.00 284.00 281.00 283.00 290.00 298.00 299.00 297.00 303.00 310.00 313.00 314.00 309.00 308.00 316.00 312.00 317.00 317.00 306.00 278.00 248.00 216.00 170.00 138.00 111.00 91.00 81.00 122.00 163.00 206.00 252.00 286.00 359.00 386.00 390.00 331.00 305.00 255.00 200.00 154.00 124.00 109.00 63.00 57.00 45.00 45.00 45.00 58.00 39.00 30.00 13.00 10.00 3.00 1.00 4.00 2.00 4.00 3.00 4.00 2.00 2.00 2.00 2.00 1.00 1.00 0.00 1.00 1.00 1.00 0.00 0.00 0.00 0.00 0.00 0.00 0.00 0.00 0.00 0.00 0.00 0.00 0.00 0.00 0.00 0.00 0.00 0.00 0.00 0.00 0.00 0.00 0.00 0.00 0.00 0.00 0.00 0.00 0.00 0.00 0.00 0.00 0.00 0.00 0.00 0.00 0.00 0.00 3.00 2.00 1.00 1.00 8.00 21.00 37.00 49.00 68.00 83.00 89.00 95.00 87.00 80.00 85.00 100.00 133.00 112.00 115.00 103.00 103.00 108.00 108.00 145.00 196.00 232.00 264.00 267.00 274.00 281.00 274.00 270.00 260.00 261.00 263.00 268.00 270.00 274.00 278.00 284.00 288.00 292.00 296.00 297.00 299.00 302.00 310.00 318.00 325.00 319.00 328.00 331.00 334.00 337.00 322.00 281.00 231.00 174.00 140.00 118.00 94.00 89.00 118.00 168.00 201.00 241.00 254.00 309.00 382.00 405.00 390.00 343.00 312.00 262.00 231.00 162.00 106.00 83.00 93.00 74.00 67.00 52.00 37.00 17.00 19.00 20.00 14.00 9.00 3.00 3.00 3.00 2.00 1.00 1.00 1.00 0.00 0.00 0.00 0.00 1.00 1.00 1.00 0.00 0.00 0.00 0.00 0.00 1.00 0.00 0.00 0.00 0.00 0.00 0.00 0.00 0.00 0.00 0.00 0.00 0.00 0.00 0.00 0.00 0.00 0.00 0.00 0.00 0.00 0.00 0.00 0.00 0.00 0.00 0.00 0.00 0.00 0.00 0.00 0.00 0.00 6.00 5.00 3.00 4.00 13.00 28.00 61.00 73.00 91.00 91.00 78.00 69.00 76.00 85.00 119.00 139.00 170.00 129.00 135.00 113.00 114.00 119.00 111.00 148.00 198.00 237.00 252.00 250.00 263.00 263.00 254.00 252.00 249.00 251.00 255.00 263.00 270.00 274.00 274.00 277.00 278.00 286.00 290.00 293.00 292.00 296.00 302.00 299.00 294.00 296.00 317.00 336.00 341.00 345.00 344.00 344.00 353.00 343.00 298.00 252.00 204.00 153.00 99.00 106.00 152.00 186.00 197.00 230.00 251.00 288.00 309.00 314.00 309.00 285.00 247.00 222.00 161.00 161.00 150.00 117.00 80.00 64.00 68.00 54.00 43.00 50.00 33.00 32.00 18.00 12.00 4.00 3.00 2.00 2.00 1.00 0.00 0.00 1.00 1.00 1.00 1.00 1.00 0.00 0.00 1.00 1.00 1.00 0.00 0.00 0.00 0.00 0.00 0.00 0.00 0.00 0.00 0.00 0.00 0.00 0.00 0.00 0.00 0.00 0.00 0.00 0.00 0.00 0.00 0.00 0.00 0.00 0.00 0.00 0.00 0.00 0.00 0.00 0.00 0.00 0.00 6.00 6.00 4.00 6.00 34.00 60.00 77.00 79.00 84.00 78.00 68.00 75.00 101.00 116.00 156.00 184.00 201.00 178.00 166.00 160.00 164.00 150.00 124.00 126.00 157.00 206.00 232.00 242.00 258.00 265.00 262.00 258.00 254.00 257.00 259.00 265.00 271.00 273.00 276.00 278.00 281.00 286.00 291.00 289.00 288.00 292.00 301.00 301.00 296.00 297.00 300.00 303.00 308.00 322.00 335.00 345.00 355.00 352.00 362.00 368.00 347.00 314.00 262.00 201.00 109.00 83.00 140.00 178.00 216.00 248.00 257.00 240.00 224.00 222.00 243.00 268.00 266.00 261.00 259.00 204.00 155.00 74.00 72.00 67.00 59.00 59.00 58.00 49.00 33.00 26.00 10.00 4.00 3.00 5.00 4.00 6.00 7.00 7.00 7.00 5.00 2.00 2.00 0.00 0.00 0.00 0.00 0.00 0.00 0.00 0.00 0.00 0.00 0.00 0.00 0.00 0.00 0.00 0.00 0.00 0.00 0.00 0.00 0.00 0.00 0.00 0.00 0.00 0.00 0.00 0.00 0.00 0.00 0.00 0.00 0.00 0.00 0.00 0.00 0.00 0.00 2.00 4.00 3.00 6.00 20.00 58.00 79.00 92.00 81.00 61.00 64.00 89.00 114.00 145.00 178.00 212.00 221.00 215.00 215.00 199.00 196.00 176.00 153.00 133.00 119.00 150.00 200.00 221.00 247.00 257.00 247.00 233.00 228.00 229.00 224.00 231.00 240.00 246.00 259.00 270.00 281.00 290.00 295.00 294.00 291.00 289.00 289.00 292.00 293.00 297.00 300.00 300.00 303.00 313.00 318.00 324.00 326.00 342.00 347.00 355.00 356.00 368.00 363.00 343.00 320.00 274.00 200.00 101.00 99.00 163.00 210.00 229.00 248.00 284.00 326.00 333.00 348.00 320.00 315.00 289.00 244.00 176.00 146.00 101.00 68.00 55.00 63.00 57.00 69.00 54.00 40.00 27.00 17.00 11.00 5.00 7.00 9.00 10.00 11.00 14.00 13.00 10.00 3.00 1.00 1.00 0.00 0.00 0.00 0.00 0.00 0.00 0.00 0.00 0.00 0.00 0.00 0.00 0.00 0.00 0.00 0.00 0.00 0.00 0.00 0.00 0.00 0.00 0.00 0.00 0.00 0.00 0.00 0.00 0.00 0.00 0.00 0.00 0.00 0.00 0.00 3.00 3.00 1.00 4.00 16.00 55.00 86.00 99.00 81.00 62.00 74.00 100.00 151.00 191.00 206.00 236.00 247.00 253.00 229.00 190.00 188.00 181.00 165.00 150.00 115.00 108.00 104.00 137.00 170.00 204.00 220.00 235.00 237.00 240.00 237.00 236.00 242.00 246.00 254.00 259.00 261.00 265.00 262.00 263.00 264.00 270.00 280.00 288.00 286.00 286.00 293.00 301.00 307.00 316.00 314.00 315.00 307.00 301.00 308.00 315.00 332.00 344.00 346.00 351.00 364.00 344.00 314.00 277.00 213.00 129.00 91.00 140.00 196.00 256.00 313.00 318.00 335.00 341.00 328.00 331.00 316.00 273.00 256.00 214.00 157.00 90.00 74.00 60.00 63.00 48.00 49.00 48.00 38.00 25.00 13.00 9.00 6.00 8.00 10.00 14.00 13.00 14.00 14.00 14.00 9.00 3.00 1.00 1.00 0.00 0.00 0.00 1.00 1.00 0.00 0.00 0.00 0.00 0.00 0.00 0.00 0.00 0.00 0.00 0.00 0.00 0.00 0.00 0.00 0.00 0.00 0.00 0.00 0.00 0.00 0.00 1.00 0.00 0.00 0.00 0.00 2.00 1.00 1.00 3.00 25.00 56.00 90.00 99.00 81.00 69.00 77.00 109.00 174.00 211.00 220.00 236.00 236.00 216.00 193.00 175.00 173.00 172.00 164.00 154.00 128.00 128.00 121.00 139.00 176.00 210.00 219.00 220.00 228.00 238.00 240.00 242.00 249.00 255.00 264.00 270.00 273.00 269.00 265.00 267.00 270.00 278.00 288.00 295.00 289.00 285.00 285.00 288.00 295.00 299.00 296.00 302.00 295.00 293.00 296.00 308.00 318.00 331.00 335.00 344.00 354.00 355.00 354.00 343.00 315.00 289.00 242.00 188.00 146.00 91.00 100.00 183.00 243.00 287.00 307.00 334.00 339.00 309.00 300.00 257.00 237.00 192.00 146.00 100.00 73.00 47.00 41.00 52.00 48.00 59.00 52.00 33.00 16.00 7.00 3.00 4.00 7.00 10.00 13.00 14.00 12.00 11.00 9.00 5.00 3.00 1.00 1.00 1.00 1.00 0.00 0.00 0.00 0.00 0.00 0.00 0.00 0.00 0.00 0.00 0.00 0.00 0.00 0.00 0.00 0.00 0.00 0.00 0.00 0.00 0.00 1.00 1.00 0.00 0.00 0.00 0.00 2.00 1.00 2.00 3.00 19.00 48.00 80.00 93.00 75.00 80.00 68.00 112.00 177.00 217.00 226.00 214.00 208.00 212.00 202.00 198.00 176.00 159.00 152.00 156.00 150.00 160.00 180.00 204.00 217.00 230.00 229.00 211.00 187.00 190.00 206.00 220.00 227.00 235.00 243.00 256.00 263.00 262.00 260.00 266.00 272.00 282.00 284.00 281.00 269.00 263.00 267.00 283.00 286.00 293.00 296.00 292.00 282.00 269.00 275.00 288.00 297.00 308.00 326.00 341.00 341.00 340.00 347.00 363.00 364.00 340.00 297.00 257.00 217.00 173.00 150.00 113.00 117.00 149.00 185.00 217.00 258.00 283.00 289.00 278.00 240.00 199.00 160.00 131.00 102.00 64.00 40.00 45.00 44.00 60.00 57.00 56.00 45.00 29.00 19.00 5.00 4.00 3.00 5.00 7.00 8.00 10.00 13.00 13.00 10.00 7.00 4.00 2.00 1.00 0.00 1.00 0.00 1.00 0.00 0.00 0.00 0.00 0.00 0.00 0.00 0.00 0.00 0.00 0.00 0.00 0.00 0.00 0.00 0.00 0.00 1.00 1.00 1.00 0.00 0.00 0.00 1.00 1.00 3.00 3.00 1.00 20.00 52.00 82.00 85.00 90.00 65.00 98.00 176.00 220.00 234.00 220.00 213.00 226.00 207.00 200.00 172.00 157.00 152.00 170.00 208.00 232.00 240.00 239.00 243.00 248.00 250.00 255.00 256.00 250.00 245.00 248.00 253.00 253.00 241.00 239.00 244.00 245.00 246.00 249.00 247.00 248.00 245.00 244.00 250.00 253.00 262.00 273.00 277.00 277.00 285.00 277.00 277.00 273.00 275.00 273.00 272.00 279.00 292.00 306.00 309.00 308.00 326.00 351.00 358.00 344.00 343.00 339.00 311.00 270.00 234.00 212.00 170.00 108.00 120.00 142.00 158.00 186.00 239.00 323.00 285.00 241.00 170.00 149.00 110.00 102.00 54.00 64.00 31.00 38.00 43.00 61.00 61.00 55.00 51.00 39.00 24.00 9.00 7.00 6.00 7.00 9.00 13.00 16.00 16.00 14.00 9.00 6.00 3.00 0.00 0.00 0.00 1.00 0.00 0.00 0.00 0.00 0.00 0.00 0.00 0.00 0.00 0.00 0.00 0.00 0.00 0.00 0.00 0.00 0.00 0.00 0.00 0.00 0.00 0.00 0.00 1.00 1.00 4.00 3.00 1.00 7.00 36.00 63.00 86.00 95.00 77.00 69.00 146.00 218.00 240.00 242.00 231.00 237.00 214.00 205.00 186.00 180.00 163.00 165.00 207.00 234.00 241.00 241.00 246.00 250.00 253.00 260.00 262.00 266.00 270.00 276.00 278.00 276.00 268.00 264.00 272.00 264.00 259.00 261.00 259.00 256.00 254.00 253.00 260.00 261.00 262.00 266.00 270.00 271.00 275.00 274.00 277.00 277.00 283.00 281.00 277.00 285.00 297.00 310.00 312.00 308.00 312.00 321.00 330.00 333.00 342.00 339.00 324.00 295.00 280.00 275.00 253.00 184.00 114.00 119.00 150.00 140.00 174.00 279.00 287.00 284.00 212.00 203.00 153.00 129.00 78.00 71.00 42.00 41.00 43.00 56.00 58.00 59.00 54.00 53.00 43.00 36.00 21.00 13.00 8.00 8.00 11.00 14.00 15.00 15.00 12.00 9.00 5.00 1.00 0.00 0.00 0.00 0.00 0.00 0.00 0.00 0.00 0.00 0.00 0.00 0.00 0.00 0.00 0.00 0.00 0.00 0.00 0.00 0.00 0.00 0.00 1.00 0.00 0.00 0.00 1.00 0.00 3.00 3.00 1.00 0.00 15.00 45.00 82.00 102.00 82.00 70.00 104.00 175.00 217.00 237.00 233.00 238.00 218.00 211.00 208.00 203.00 181.00 161.00 192.00 224.00 237.00 239.00 236.00 240.00 243.00 248.00 249.00 254.00 259.00 264.00 267.00 272.00 274.00 272.00 281.00 280.00 280.00 285.00 285.00 284.00 287.00 288.00 294.00 291.00 282.00 280.00 276.00 279.00 281.00 279.00 274.00 270.00 271.00 274.00 280.00 288.00 296.00 304.00 304.00 308.00 303.00 316.00 316.00 328.00 338.00 340.00 348.00 352.00 337.00 309.00 282.00 244.00 215.00 178.00 145.00 97.00 121.00 203.00 239.00 288.00 267.00 235.00 201.00 144.00 108.00 80.00 48.00 49.00 49.00 47.00 50.00 51.00 49.00 49.00 44.00 44.00 40.00 31.00 20.00 11.00 6.00 7.00 10.00 13.00 13.00 10.00 7.00 3.00 1.00 1.00 0.00 0.00 0.00 0.00 0.00 0.00 0.00 0.00 0.00 0.00 0.00 0.00 0.00 0.00 0.00 0.00 0.00 0.00 0.00 0.00 0.00 0.00 0.00 0.00 1.00 1.00 6.00 6.00 2.00 2.00 4.00 8.00 55.00 97.00 96.00 77.00 65.00 114.00 172.00 215.00 216.00 235.00 222.00 214.00 202.00 200.00 190.00 161.00 149.00 176.00 216.00 229.00 232.00 233.00 241.00 249.00 251.00 254.00 259.00 263.00 261.00 262.00 267.00 268.00 273.00 278.00 278.00 282.00 285.00 288.00 290.00 291.00 295.00 294.00 294.00 294.00 288.00 295.00 298.00 295.00 279.00 271.00 278.00 2