# vtk DataFile Version 2.0
VTK from Matlab
ASCII
DATASET STRUCTURED_POINTS
DIMENSIONS 140 68 44
SPACING 1 1 1
ORIGIN 0 0 0
POINT_DATA 418880
SCALARS mag float 1
LOOKUP_TABLE default
0.00 0.00 0.00 0.00 2.00 2.00 2.00 2.00 1.00 1.00 0.00 0.00 0.00 1.00 2.00 1.00 1.00 0.00 1.00 1.00 0.00 1.00 0.00 1.00 1.00 1.00 1.00 1.00 1.00 3.00 2.00 1.00 1.00 1.00 1.00 1.00 0.00 0.00 0.00 0.00 1.00 1.00 1.00 0.00 0.00 0.00 0.00 0.00 0.00 0.00 0.00 0.00 0.00 0.00 0.00 0.00 0.00 0.00 0.00 0.00 0.00 0.00 0.00 0.00 1.00 1.00 0.00 0.00 0.00 0.00 0.00 0.00 0.00 0.00 0.00 0.00 0.00 0.00 0.00 0.00 0.00 0.00 0.00 0.00 0.00 0.00 0.00 0.00 0.00 0.00 0.00 0.00 0.00 0.00 0.00 0.00 0.00 0.00 0.00 0.00 0.00 0.00 0.00 0.00 0.00 0.00 0.00 0.00 0.00 0.00 0.00 0.00 0.00 0.00 0.00 0.00 0.00 0.00 0.00 0.00 0.00 0.00 0.00 0.00 0.00 0.00 0.00 0.00 0.00 0.00 0.00 0.00 0.00 0.00 0.00 0.00 0.00 0.00 0.00 0.00 0.00 0.00 0.00 0.00 1.00 2.00 3.00 2.00 0.00 2.00 2.00 0.00 1.00 2.00 1.00 2.00 2.00 1.00 3.00 2.00 1.00 1.00 2.00 3.00 2.00 2.00 2.00 2.00 2.00 3.00 3.00 2.00 1.00 1.00 0.00 0.00 1.00 0.00 0.00 0.00 0.00 1.00 0.00 0.00 0.00 0.00 0.00 1.00 0.00 0.00 0.00 1.00 1.00 0.00 0.00 0.00 0.00 0.00 0.00 0.00 0.00 0.00 0.00 0.00 0.00 0.00 0.00 0.00 0.00 0.00 0.00 0.00 0.00 0.00 0.00 0.00 0.00 0.00 0.00 0.00 1.00 1.00 1.00 0.00 0.00 0.00 0.00 0.00 0.00 0.00 0.00 0.00 0.00 1.00 0.00 0.00 0.00 0.00 0.00 0.00 0.00 0.00 0.00 0.00 0.00 0.00 0.00 0.00 0.00 0.00 0.00 0.00 0.00 0.00 0.00 0.00 0.00 0.00 0.00 0.00 0.00 0.00 0.00 0.00 0.00 0.00 0.00 0.00 0.00 0.00 0.00 0.00 0.00 0.00 0.00 0.00 0.00 0.00 0.00 0.00 0.00 0.00 0.00 0.00 1.00 1.00 3.00 2.00 1.00 2.00 4.00 1.00 1.00 3.00 1.00 2.00 2.00 1.00 3.00 3.00 1.00 1.00 2.00 2.00 1.00 2.00 2.00 4.00 5.00 4.00 3.00 3.00 1.00 1.00 1.00 0.00 0.00 0.00 0.00 1.00 1.00 0.00 0.00 0.00 0.00 0.00 0.00 2.00 1.00 1.00 0.00 1.00 1.00 0.00 0.00 0.00 0.00 0.00 0.00 0.00 0.00 0.00 0.00 0.00 0.00 1.00 0.00 0.00 0.00 0.00 0.00 0.00 0.00 0.00 0.00 0.00 0.00 0.00 0.00 0.00 0.00 0.00 0.00 0.00 1.00 1.00 1.00 0.00 0.00 0.00 0.00 0.00 0.00 0.00 0.00 0.00 0.00 0.00 0.00 0.00 0.00 0.00 0.00 0.00 0.00 0.00 0.00 0.00 0.00 0.00 0.00 0.00 0.00 0.00 0.00 0.00 0.00 0.00 0.00 0.00 0.00 0.00 0.00 0.00 0.00 0.00 0.00 0.00 0.00 0.00 0.00 0.00 0.00 0.00 0.00 0.00 0.00 0.00 0.00 0.00 0.00 0.00 0.00 0.00 1.00 1.00 2.00 1.00 1.00 2.00 3.00 2.00 2.00 2.00 2.00 1.00 1.00 0.00 1.00 1.00 1.00 0.00 1.00 0.00 1.00 1.00 2.00 3.00 2.00 2.00 1.00 2.00 1.00 1.00 1.00 1.00 0.00 1.00 1.00 1.00 1.00 1.00 1.00 1.00 1.00 1.00 1.00 2.00 3.00 3.00 2.00 1.00 1.00 1.00 1.00 1.00 1.00 1.00 1.00 0.00 0.00 0.00 0.00 0.00 0.00 0.00 1.00 1.00 1.00 0.00 0.00 0.00 0.00 0.00 0.00 0.00 0.00 0.00 0.00 0.00 0.00 0.00 0.00 0.00 0.00 0.00 1.00 0.00 0.00 0.00 0.00 1.00 0.00 0.00 0.00 0.00 0.00 0.00 0.00 0.00 0.00 0.00 0.00 0.00 0.00 0.00 0.00 0.00 0.00 0.00 0.00 0.00 0.00 0.00 0.00 0.00 0.00 0.00 0.00 0.00 0.00 0.00 0.00 0.00 0.00 0.00 0.00 0.00 0.00 0.00 0.00 0.00 0.00 0.00 0.00 0.00 0.00 0.00 0.00 0.00 0.00 0.00 0.00 1.00 1.00 1.00 1.00 1.00 1.00 2.00 4.00 2.00 3.00 2.00 2.00 1.00 0.00 0.00 1.00 1.00 1.00 0.00 1.00 0.00 0.00 0.00 1.00 1.00 1.00 1.00 1.00 2.00 1.00 1.00 1.00 1.00 1.00 1.00 1.00 1.00 1.00 1.00 1.00 1.00 1.00 1.00 1.00 1.00 2.00 3.00 2.00 2.00 2.00 1.00 2.00 1.00 1.00 1.00 2.00 2.00 1.00 1.00 2.00 1.00 1.00 0.00 0.00 1.00 1.00 1.00 1.00 0.00 0.00 0.00 0.00 0.00 0.00 0.00 0.00 0.00 0.00 0.00 0.00 0.00 0.00 0.00 0.00 0.00 0.00 0.00 0.00 0.00 0.00 0.00 0.00 1.00 1.00 0.00 0.00 0.00 0.00 0.00 0.00 0.00 0.00 0.00 0.00 0.00 0.00 0.00 0.00 0.00 0.00 0.00 0.00 0.00 0.00 0.00 0.00 0.00 0.00 0.00 0.00 0.00 0.00 0.00 0.00 0.00 0.00 0.00 0.00 0.00 0.00 0.00 0.00 0.00 0.00 0.00 0.00 0.00 0.00 0.00 0.00 1.00 2.00 2.00 1.00 1.00 1.00 2.00 6.00 2.00 3.00 2.00 2.00 1.00 0.00 0.00 0.00 1.00 1.00 0.00 0.00 1.00 1.00 0.00 1.00 1.00 1.00 2.00 1.00 2.00 2.00 3.00 0.00 0.00 0.00 1.00 1.00 0.00 0.00 1.00 1.00 1.00 0.00 1.00 1.00 1.00 1.00 1.00 1.00 1.00 1.00 1.00 1.00 1.00 1.00 1.00 2.00 2.00 2.00 3.00 3.00 2.00 2.00 2.00 1.00 1.00 1.00 1.00 1.00 1.00 1.00 1.00 1.00 0.00 0.00 0.00 0.00 0.00 0.00 0.00 0.00 0.00 0.00 0.00 0.00 0.00 0.00 0.00 0.00 0.00 0.00 0.00 0.00 0.00 0.00 0.00 0.00 0.00 0.00 0.00 0.00 0.00 0.00 0.00 0.00 0.00 0.00 0.00 0.00 0.00 0.00 0.00 0.00 0.00 0.00 0.00 0.00 0.00 0.00 0.00 0.00 0.00 0.00 0.00 0.00 0.00 0.00 0.00 0.00 0.00 0.00 0.00 0.00 0.00 0.00 0.00 0.00 0.00 0.00 0.00 0.00 3.00 3.00 2.00 0.00 1.00 1.00 2.00 5.00 1.00 3.00 2.00 2.00 1.00 0.00 1.00 1.00 1.00 2.00 1.00 1.00 1.00 2.00 1.00 0.00 1.00 1.00 4.00 2.00 3.00 2.00 3.00 0.00 0.00 0.00 1.00 1.00 1.00 1.00 1.00 1.00 1.00 0.00 1.00 1.00 1.00 0.00 1.00 1.00 1.00 1.00 0.00 1.00 1.00 1.00 1.00 1.00 2.00 2.00 2.00 2.00 3.00 3.00 3.00 2.00 1.00 1.00 1.00 1.00 1.00 1.00 1.00 0.00 0.00 0.00 0.00 0.00 0.00 0.00 0.00 0.00 0.00 0.00 0.00 0.00 0.00 0.00 0.00 0.00 0.00 0.00 0.00 0.00 0.00 0.00 0.00 0.00 0.00 0.00 0.00 0.00 0.00 0.00 0.00 0.00 0.00 0.00 0.00 0.00 0.00 0.00 0.00 0.00 0.00 0.00 0.00 0.00 0.00 0.00 0.00 0.00 0.00 0.00 0.00 0.00 0.00 0.00 0.00 0.00 0.00 0.00 0.00 0.00 0.00 0.00 0.00 0.00 0.00 0.00 0.00 0.00 3.00 4.00 2.00 1.00 1.00 1.00 1.00 4.00 1.00 3.00 3.00 2.00 2.00 1.00 1.00 0.00 1.00 1.00 1.00 1.00 2.00 2.00 1.00 0.00 1.00 1.00 4.00 2.00 3.00 2.00 2.00 1.00 0.00 1.00 1.00 1.00 1.00 1.00 1.00 1.00 1.00 0.00 1.00 0.00 0.00 1.00 1.00 1.00 1.00 1.00 0.00 1.00 1.00 1.00 1.00 1.00 2.00 2.00 1.00 2.00 2.00 2.00 2.00 1.00 2.00 2.00 2.00 2.00 2.00 1.00 1.00 0.00 0.00 0.00 0.00 0.00 0.00 0.00 0.00 0.00 0.00 0.00 0.00 0.00 1.00 1.00 0.00 0.00 0.00 0.00 0.00 0.00 0.00 0.00 0.00 0.00 0.00 0.00 0.00 0.00 0.00 0.00 0.00 0.00 0.00 0.00 0.00 0.00 0.00 0.00 0.00 0.00 0.00 0.00 0.00 0.00 0.00 0.00 0.00 0.00 0.00 0.00 0.00 0.00 0.00 0.00 0.00 0.00 0.00 0.00 0.00 0.00 0.00 0.00 0.00 0.00 0.00 0.00 0.00 0.00 3.00 3.00 2.00 1.00 1.00 0.00 2.00 3.00 1.00 2.00 4.00 2.00 2.00 2.00 2.00 0.00 1.00 1.00 1.00 1.00 1.00 2.00 1.00 1.00 0.00 1.00 3.00 2.00 2.00 1.00 1.00 1.00 1.00 1.00 1.00 1.00 1.00 1.00 1.00 1.00 1.00 1.00 1.00 1.00 0.00 1.00 1.00 2.00 1.00 1.00 1.00 1.00 1.00 1.00 1.00 1.00 1.00 1.00 1.00 1.00 2.00 2.00 2.00 1.00 1.00 1.00 1.00 2.00 2.00 1.00 1.00 0.00 0.00 0.00 0.00 0.00 0.00 0.00 0.00 0.00 0.00 0.00 0.00 1.00 1.00 2.00 1.00 0.00 0.00 0.00 0.00 1.00 1.00 0.00 0.00 0.00 0.00 0.00 0.00 0.00 0.00 0.00 0.00 0.00 0.00 0.00 0.00 0.00 0.00 1.00 1.00 0.00 0.00 1.00 1.00 0.00 1.00 1.00 1.00 1.00 0.00 0.00 0.00 0.00 0.00 0.00 0.00 0.00 0.00 0.00 0.00 0.00 0.00 0.00 0.00 0.00 0.00 0.00 0.00 0.00 1.00 1.00 3.00 3.00 2.00 1.00 1.00 1.00 1.00 2.00 2.00 3.00 2.00 2.00 1.00 1.00 2.00 1.00 1.00 1.00 1.00 1.00 1.00 1.00 0.00 0.00 2.00 2.00 3.00 2.00 1.00 1.00 1.00 1.00 1.00 1.00 1.00 1.00 1.00 1.00 1.00 0.00 1.00 0.00 0.00 1.00 2.00 2.00 2.00 1.00 1.00 2.00 2.00 2.00 2.00 1.00 2.00 2.00 1.00 1.00 2.00 2.00 1.00 1.00 1.00 1.00 1.00 1.00 1.00 1.00 1.00 0.00 0.00 0.00 1.00 1.00 0.00 1.00 0.00 1.00 1.00 1.00 1.00 2.00 1.00 1.00 1.00 1.00 0.00 0.00 0.00 0.00 1.00 1.00 0.00 0.00 0.00 0.00 0.00 0.00 0.00 0.00 0.00 0.00 0.00 0.00 0.00 0.00 0.00 1.00 1.00 0.00 0.00 1.00 1.00 1.00 2.00 2.00 2.00 1.00 1.00 1.00 1.00 0.00 0.00 0.00 1.00 0.00 0.00 0.00 0.00 0.00 0.00 0.00 0.00 0.00 0.00 0.00 0.00 0.00 0.00 1.00 4.00 3.00 1.00 1.00 1.00 1.00 1.00 2.00 2.00 4.00 1.00 1.00 1.00 1.00 3.00 2.00 1.00 1.00 1.00 1.00 2.00 1.00 0.00 0.00 1.00 2.00 3.00 1.00 2.00 2.00 2.00 1.00 0.00 1.00 1.00 1.00 1.00 1.00 1.00 1.00 2.00 1.00 0.00 1.00 2.00 2.00 1.00 1.00 1.00 1.00 2.00 2.00 2.00 2.00 2.00 2.00 1.00 2.00 2.00 2.00 2.00 2.00 2.00 1.00 1.00 1.00 1.00 1.00 1.00 0.00 1.00 1.00 1.00 1.00 1.00 1.00 1.00 1.00 1.00 2.00 1.00 2.00 1.00 1.00 0.00 1.00 1.00 0.00 1.00 0.00 1.00 1.00 0.00 0.00 0.00 0.00 0.00 0.00 0.00 0.00 0.00 0.00 0.00 0.00 0.00 1.00 1.00 1.00 0.00 0.00 0.00 1.00 1.00 1.00 1.00 2.00 2.00 1.00 1.00 1.00 1.00 1.00 0.00 0.00 1.00 1.00 0.00 0.00 0.00 0.00 0.00 0.00 0.00 0.00 0.00 0.00 0.00 0.00 1.00 1.00 3.00 3.00 2.00 2.00 1.00 1.00 2.00 2.00 1.00 2.00 1.00 1.00 1.00 1.00 1.00 1.00 1.00 0.00 1.00 1.00 1.00 1.00 0.00 1.00 1.00 2.00 2.00 1.00 1.00 1.00 3.00 3.00 2.00 3.00 4.00 3.00 2.00 1.00 1.00 1.00 2.00 1.00 1.00 1.00 2.00 1.00 1.00 1.00 1.00 1.00 1.00 1.00 1.00 1.00 2.00 1.00 1.00 1.00 2.00 2.00 2.00 3.00 3.00 3.00 3.00 3.00 2.00 1.00 1.00 1.00 2.00 2.00 1.00 1.00 1.00 1.00 1.00 1.00 1.00 1.00 1.00 2.00 1.00 0.00 0.00 1.00 1.00 0.00 1.00 0.00 2.00 2.00 0.00 0.00 0.00 0.00 0.00 0.00 0.00 0.00 0.00 0.00 0.00 1.00 1.00 1.00 1.00 1.00 1.00 0.00 0.00 0.00 0.00 1.00 1.00 1.00 1.00 0.00 0.00 1.00 1.00 1.00 0.00 0.00 1.00 1.00 1.00 0.00 0.00 1.00 1.00 0.00 1.00 1.00 1.00 0.00 0.00 0.00 1.00 1.00 2.00 1.00 2.00 1.00 0.00 2.00 3.00 1.00 0.00 1.00 2.00 3.00 1.00 0.00 0.00 0.00 0.00 1.00 1.00 1.00 0.00 1.00 1.00 0.00 1.00 3.00 3.00 2.00 2.00 3.00 6.00 6.00 4.00 6.00 8.00 8.00 11.00 12.00 9.00 10.00 8.00 6.00 5.00 3.00 4.00 3.00 1.00 1.00 1.00 2.00 2.00 1.00 1.00 1.00 0.00 1.00 1.00 1.00 1.00 1.00 1.00 1.00 2.00 2.00 2.00 3.00 2.00 1.00 1.00 1.00 2.00 1.00 1.00 1.00 1.00 1.00 1.00 1.00 1.00 1.00 0.00 1.00 1.00 0.00 0.00 0.00 0.00 0.00 0.00 0.00 1.00 1.00 0.00 0.00 0.00 0.00 0.00 0.00 0.00 0.00 0.00 0.00 0.00 0.00 0.00 1.00 1.00 0.00 0.00 0.00 0.00 0.00 0.00 0.00 0.00 1.00 1.00 0.00 0.00 0.00 0.00 0.00 0.00 0.00 0.00 0.00 0.00 0.00 0.00 1.00 1.00 0.00 1.00 1.00 1.00 0.00 0.00 0.00 1.00 1.00 2.00 1.00 2.00 2.00 1.00 2.00 2.00 1.00 1.00 1.00 3.00 4.00 2.00 1.00 0.00 1.00 1.00 1.00 1.00 1.00 1.00 1.00 1.00 2.00 5.00 6.00 4.00 1.00 3.00 3.00 3.00 7.00 7.00 7.00 7.00 5.00 4.00 5.00 6.00 10.00 12.00 9.00 11.00 11.00 12.00 9.00 7.00 5.00 3.00 3.00 3.00 2.00 1.00 1.00 0.00 0.00 1.00 1.00 0.00 1.00 1.00 1.00 2.00 1.00 1.00 0.00 1.00 1.00 0.00 1.00 1.00 1.00 1.00 1.00 1.00 1.00 1.00 1.00 1.00 1.00 0.00 1.00 1.00 0.00 0.00 0.00 0.00 0.00 0.00 0.00 0.00 0.00 0.00 0.00 0.00 0.00 0.00 0.00 0.00 0.00 0.00 0.00 0.00 0.00 0.00 0.00 0.00 0.00 0.00 0.00 0.00 0.00 0.00 1.00 1.00 1.00 1.00 0.00 0.00 0.00 0.00 0.00 0.00 0.00 0.00 0.00 0.00 0.00 0.00 0.00 0.00 0.00 0.00 0.00 0.00 0.00 0.00 0.00 2.00 2.00 4.00 3.00 3.00 3.00 1.00 2.00 2.00 2.00 2.00 1.00 2.00 3.00 2.00 2.00 2.00 2.00 2.00 1.00 2.00 2.00 1.00 1.00 1.00 2.00 6.00 5.00 10.00 16.00 21.00 18.00 22.00 27.00 29.00 25.00 30.00 37.00 39.00 39.00 40.00 37.00 37.00 31.00 28.00 21.00 14.00 9.00 8.00 4.00 4.00 3.00 3.00 5.00 4.00 3.00 1.00 1.00 0.00 1.00 0.00 0.00 0.00 0.00 1.00 1.00 1.00 0.00 0.00 0.00 0.00 0.00 0.00 0.00 0.00 0.00 0.00 0.00 1.00 1.00 1.00 1.00 0.00 1.00 1.00 0.00 0.00 0.00 0.00 0.00 0.00 0.00 0.00 0.00 0.00 0.00 0.00 0.00 0.00 0.00 0.00 0.00 0.00 0.00 0.00 0.00 0.00 0.00 0.00 0.00 0.00 0.00 0.00 0.00 0.00 0.00 0.00 0.00 0.00 0.00 0.00 0.00 0.00 1.00 0.00 0.00 0.00 0.00 0.00 0.00 0.00 0.00 0.00 0.00 0.00 0.00 0.00 0.00 0.00 0.00 2.00 3.00 8.00 7.00 5.00 2.00 1.00 3.00 1.00 3.00 1.00 0.00 1.00 3.00 3.00 2.00 3.00 2.00 4.00 1.00 2.00 3.00 4.00 6.00 6.00 9.00 7.00 4.00 7.00 8.00 14.00 8.00 8.00 10.00 15.00 15.00 15.00 24.00 28.00 22.00 22.00 22.00 27.00 33.00 37.00 33.00 28.00 25.00 24.00 15.00 12.00 11.00 8.00 5.00 3.00 1.00 1.00 1.00 1.00 1.00 1.00 2.00 2.00 2.00 1.00 0.00 1.00 0.00 0.00 0.00 1.00 1.00 0.00 0.00 0.00 0.00 0.00 0.00 0.00 0.00 0.00 1.00 0.00 0.00 0.00 0.00 0.00 0.00 0.00 0.00 0.00 0.00 0.00 0.00 0.00 0.00 0.00 0.00 0.00 0.00 0.00 0.00 0.00 0.00 0.00 0.00 0.00 0.00 0.00 0.00 0.00 0.00 0.00 0.00 0.00 0.00 0.00 0.00 0.00 0.00 0.00 0.00 0.00 0.00 0.00 0.00 0.00 0.00 0.00 0.00 0.00 0.00 0.00 0.00 0.00 0.00 0.00 0.00 0.00 0.00 2.00 3.00 8.00 7.00 5.00 3.00 1.00 4.00 5.00 3.00 1.00 1.00 1.00 2.00 2.00 2.00 3.00 2.00 2.00 6.00 8.00 8.00 8.00 10.00 6.00 2.00 11.00 23.00 37.00 56.00 71.00 90.00 99.00 105.00 117.00 119.00 123.00 126.00 129.00 137.00 141.00 134.00 122.00 107.00 93.00 69.00 53.00 37.00 36.00 23.00 31.00 30.00 23.00 18.00 17.00 15.00 7.00 3.00 3.00 3.00 3.00 3.00 2.00 2.00 3.00 3.00 3.00 1.00 1.00 2.00 1.00 1.00 1.00 1.00 1.00 1.00 1.00 1.00 1.00 1.00 0.00 2.00 0.00 0.00 0.00 0.00 0.00 0.00 0.00 0.00 0.00 0.00 0.00 0.00 0.00 0.00 0.00 0.00 0.00 0.00 0.00 0.00 1.00 0.00 0.00 0.00 0.00 0.00 0.00 0.00 0.00 0.00 0.00 0.00 0.00 0.00 0.00 0.00 0.00 0.00 0.00 0.00 0.00 0.00 0.00 0.00 0.00 0.00 0.00 0.00 0.00 0.00 0.00 0.00 0.00 0.00 0.00 0.00 0.00 0.00 3.00 4.00 9.00 5.00 1.00 1.00 2.00 6.00 8.00 3.00 1.00 1.00 2.00 4.00 2.00 2.00 4.00 6.00 14.00 16.00 14.00 8.00 6.00 24.00 52.00 71.00 99.00 119.00 125.00 138.00 151.00 169.00 176.00 193.00 197.00 170.00 130.00 125.00 165.00 217.00 244.00 235.00 219.00 226.00 225.00 200.00 174.00 129.00 103.00 76.00 66.00 41.00 31.00 19.00 25.00 20.00 14.00 11.00 13.00 14.00 8.00 4.00 3.00 3.00 4.00 4.00 4.00 3.00 3.00 2.00 3.00 3.00 3.00 1.00 1.00 1.00 1.00 1.00 1.00 1.00 0.00 1.00 0.00 0.00 0.00 0.00 0.00 0.00 0.00 0.00 0.00 0.00 0.00 0.00 0.00 0.00 0.00 0.00 0.00 0.00 0.00 0.00 1.00 1.00 1.00 1.00 1.00 1.00 0.00 0.00 0.00 0.00 1.00 0.00 0.00 0.00 0.00 0.00 0.00 0.00 0.00 0.00 0.00 0.00 0.00 0.00 0.00 0.00 0.00 1.00 0.00 0.00 0.00 0.00 0.00 1.00 0.00 0.00 0.00 0.00 3.00 4.00 4.00 2.00 1.00 1.00 2.00 5.00 5.00 2.00 2.00 2.00 2.00 5.00 2.00 6.00 13.00 13.00 20.00 11.00 14.00 43.00 66.00 90.00 122.00 140.00 155.00 152.00 150.00 149.00 115.00 134.00 137.00 167.00 173.00 187.00 201.00 201.00 187.00 186.00 188.00 188.00 180.00 173.00 172.00 168.00 175.00 168.00 175.00 158.00 160.00 132.00 106.00 77.00 54.00 33.00 13.00 9.00 19.00 19.00 14.00 9.00 7.00 13.00 11.00 6.00 2.00 2.00 2.00 1.00 3.00 3.00 3.00 2.00 2.00 2.00 2.00 0.00 0.00 0.00 0.00 1.00 0.00 0.00 0.00 0.00 0.00 0.00 0.00 0.00 0.00 0.00 0.00 0.00 0.00 0.00 0.00 0.00 0.00 0.00 0.00 0.00 0.00 0.00 0.00 0.00 0.00 1.00 0.00 0.00 0.00 1.00 1.00 1.00 0.00 0.00 1.00 0.00 0.00 0.00 0.00 0.00 0.00 0.00 0.00 0.00 0.00 0.00 0.00 0.00 1.00 0.00 0.00 0.00 0.00 0.00 0.00 0.00 0.00 0.00 5.00 5.00 4.00 2.00 2.00 1.00 2.00 3.00 2.00 1.00 3.00 3.00 3.00 3.00 10.00 20.00 19.00 15.00 7.00 11.00 41.00 83.00 110.00 135.00 152.00 142.00 123.00 137.00 160.00 188.00 193.00 241.00 289.00 311.00 318.00 334.00 347.00 368.00 325.00 322.00 322.00 308.00 277.00 245.00 240.00 258.00 237.00 198.00 142.00 133.00 144.00 156.00 143.00 141.00 149.00 132.00 104.00 79.00 62.00 38.00 22.00 7.00 7.00 15.00 12.00 9.00 7.00 4.00 3.00 1.00 2.00 2.00 2.00 2.00 3.00 3.00 3.00 1.00 2.00 1.00 1.00 1.00 0.00 0.00 0.00 0.00 0.00 0.00 0.00 1.00 0.00 1.00 1.00 1.00 0.00 0.00 0.00 0.00 0.00 0.00 0.00 0.00 0.00 0.00 0.00 0.00 0.00 0.00 1.00 0.00 0.00 0.00 0.00 0.00 0.00 0.00 1.00 1.00 0.00 0.00 0.00 0.00 0.00 0.00 0.00 0.00 0.00 0.00 0.00 0.00 0.00 0.00 0.00 0.00 0.00 0.00 0.00 0.00 0.00 0.00 8.00 9.00 7.00 3.00 4.00 2.00 3.00 4.00 2.00 2.00 2.00 3.00 2.00 6.00 20.00 26.00 11.00 11.00 33.00 68.00 99.00 121.00 139.00 133.00 126.00 129.00 153.00 196.00 236.00 298.00 323.00 369.00 435.00 405.00 368.00 360.00 372.00 410.00 422.00 426.00 473.00 490.00 494.00 440.00 422.00 389.00 375.00 337.00 272.00 245.00 191.00 168.00 126.00 109.00 111.00 105.00 120.00 130.00 119.00 103.00 92.00 76.00 58.00 32.00 14.00 5.00 8.00 5.00 4.00 5.00 10.00 6.00 4.00 3.00 2.00 2.00 2.00 1.00 2.00 1.00 1.00 2.00 1.00 0.00 0.00 1.00 0.00 0.00 0.00 0.00 0.00 1.00 1.00 1.00 0.00 0.00 1.00 0.00 0.00 0.00 0.00 0.00 0.00 0.00 0.00 0.00 0.00 0.00 1.00 1.00 1.00 0.00 0.00 1.00 0.00 1.00 1.00 0.00 0.00 0.00 1.00 0.00 0.00 0.00 0.00 0.00 0.00 0.00 0.00 0.00 0.00 0.00 0.00 0.00 0.00 0.00 0.00 0.00 0.00 0.00 9.00 10.00 7.00 3.00 4.00 4.00 3.00 2.00 4.00 6.00 5.00 5.00 2.00 14.00 28.00 23.00 3.00 38.00 87.00 120.00 136.00 161.00 163.00 119.00 138.00 211.00 261.00 288.00 331.00 358.00 345.00 336.00 355.00 318.00 289.00 291.00 312.00 321.00 329.00 327.00 367.00 412.00 447.00 443.00 445.00 411.00 410.00 410.00 377.00 352.00 305.00 257.00 227.00 189.00 152.00 123.00 100.00 87.00 98.00 97.00 92.00 98.00 101.00 91.00 74.00 48.00 33.00 19.00 7.00 8.00 13.00 12.00 10.00 6.00 3.00 3.00 2.00 1.00 1.00 1.00 0.00 1.00 1.00 0.00 0.00 1.00 1.00 0.00 0.00 0.00 0.00 0.00 1.00 1.00 0.00 0.00 0.00 0.00 0.00 0.00 0.00 0.00 0.00 0.00 0.00 0.00 0.00 0.00 0.00 0.00 0.00 0.00 0.00 1.00 1.00 1.00 1.00 1.00 1.00 0.00 0.00 0.00 0.00 0.00 0.00 0.00 0.00 0.00 0.00 0.00 0.00 0.00 0.00 0.00 0.00 0.00 0.00 0.00 0.00 0.00 10.00 6.00 3.00 2.00 3.00 5.00 6.00 3.00 5.00 9.00 10.00 10.00 4.00 16.00 24.00 8.00 31.00 76.00 112.00 138.00 132.00 133.00 147.00 169.00 222.00 299.00 350.00 347.00 343.00 309.00 274.00 227.00 190.00 146.00 120.00 125.00 146.00 147.00 141.00 149.00 167.00 185.00 214.00 274.00 313.00 319.00 349.00 391.00 428.00 429.00 417.00 392.00 339.00 282.00 212.00 177.00 182.00 175.00 147.00 118.00 93.00 89.00 102.00 112.00 98.00 77.00 72.00 62.00 48.00 32.00 11.00 8.00 11.00 6.00 3.00 4.00 3.00 3.00 1.00 2.00 1.00 1.00 1.00 0.00 1.00 0.00 0.00 0.00 0.00 0.00 1.00 1.00 1.00 1.00 0.00 0.00 1.00 1.00 1.00 1.00 0.00 0.00 0.00 0.00 0.00 0.00 0.00 0.00 0.00 0.00 0.00 0.00 0.00 0.00 0.00 0.00 0.00 1.00 1.00 0.00 0.00 0.00 0.00 0.00 0.00 0.00 0.00 0.00 0.00 0.00 1.00 1.00 1.00 1.00 0.00 0.00 0.00 0.00 0.00 0.00 7.00 4.00 3.00 4.00 3.00 4.00 6.00 4.00 5.00 15.00 17.00 9.00 6.00 16.00 10.00 39.00 86.00 110.00 122.00 138.00 116.00 119.00 172.00 231.00 253.00 239.00 238.00 241.00 227.00 184.00 138.00 126.00 126.00 140.00 149.00 175.00 217.00 240.00 234.00 225.00 223.00 217.00 189.00 151.00 122.00 118.00 151.00 190.00 217.00 261.00 289.00 354.00 387.00 398.00 329.00 260.00 267.00 231.00 217.00 193.00 181.00 146.00 128.00 114.00 97.00 83.00 78.00 71.00 64.00 59.00 48.00 35.00 20.00 3.00 1.00 4.00 3.00 3.00 2.00 3.00 1.00 2.00 1.00 1.00 0.00 0.00 1.00 1.00 1.00 1.00 0.00 1.00 1.00 0.00 0.00 0.00 1.00 1.00 1.00 1.00 1.00 0.00 0.00 0.00 0.00 0.00 0.00 0.00 0.00 0.00 0.00 0.00 0.00 0.00 0.00 0.00 0.00 0.00 0.00 0.00 0.00 0.00 0.00 0.00 0.00 0.00 0.00 0.00 0.00 0.00 0.00 0.00 1.00 1.00 0.00 1.00 0.00 0.00 0.00 0.00 5.00 3.00 1.00 7.00 6.00 3.00 2.00 5.00 13.00 23.00 21.00 6.00 2.00 17.00 50.00 74.00 102.00 131.00 124.00 110.00 128.00 133.00 183.00 217.00 206.00 164.00 109.00 115.00 151.00 167.00 190.00 221.00 254.00 259.00 253.00 274.00 318.00 342.00 331.00 325.00 331.00 327.00 314.00 284.00 247.00 221.00 218.00 219.00 207.00 147.00 99.00 137.00 162.00 225.00 265.00 313.00 331.00 302.00 288.00 288.00 305.00 295.00 228.00 190.00 129.00 109.00 78.00 69.00 61.00 71.00 81.00 68.00 56.00 38.00 33.00 17.00 12.00 2.00 1.00 3.00 3.00 5.00 3.00 2.00 2.00 1.00 1.00 1.00 1.00 1.00 0.00 0.00 1.00 0.00 0.00 0.00 0.00 1.00 0.00 0.00 1.00 1.00 0.00 0.00 0.00 0.00 1.00 1.00 1.00 0.00 1.00 0.00 0.00 0.00 0.00 0.00 0.00 0.00 0.00 0.00 0.00 0.00 0.00 0.00 0.00 0.00 0.00 0.00 0.00 0.00 0.00 0.00 0.00 0.00 0.00 0.00 0.00 0.00 0.00 0.00 4.00 5.00 2.00 7.00 7.00 4.00 3.00 9.00 17.00 17.00 10.00 21.00 43.00 82.00 96.00 90.00 105.00 128.00 111.00 100.00 141.00 175.00 175.00 154.00 135.00 119.00 148.00 211.00 253.00 288.00 319.00 340.00 348.00 343.00 341.00 341.00 353.00 365.00 369.00 373.00 379.00 378.00 378.00 370.00 354.00 331.00 308.00 285.00 265.00 233.00 235.00 205.00 176.00 111.00 70.00 131.00 185.00 242.00 293.00 324.00 365.00 367.00 362.00 350.00 303.00 224.00 163.00 131.00 99.00 104.00 108.00 83.00 66.00 60.00 58.00 49.00 38.00 31.00 27.00 22.00 36.00 31.00 8.00 2.00 4.00 6.00 3.00 2.00 1.00 1.00 1.00 0.00 1.00 1.00 1.00 0.00 0.00 1.00 0.00 0.00 0.00 0.00 0.00 0.00 0.00 1.00 2.00 3.00 3.00 2.00 2.00 2.00 2.00 1.00 0.00 0.00 0.00 0.00 0.00 1.00 1.00 1.00 0.00 0.00 0.00 0.00 0.00 0.00 0.00 0.00 0.00 0.00 0.00 0.00 0.00 0.00 0.00 0.00 0.00 0.00 5.00 6.00 4.00 5.00 8.00 5.00 3.00 7.00 10.00 18.00 52.00 79.00 80.00 98.00 100.00 91.00 105.00 122.00 106.00 108.00 130.00 147.00 120.00 96.00 122.00 179.00 247.00 286.00 315.00 344.00 354.00 355.00 351.00 362.00 365.00 368.00 363.00 363.00 369.00 373.00 370.00 375.00 384.00 382.00 375.00 361.00 357.00 366.00 347.00 322.00 299.00 269.00 246.00 228.00 197.00 151.00 102.00 110.00 160.00 177.00 233.00 276.00 333.00 374.00 381.00 378.00 359.00 328.00 230.00 188.00 141.00 113.00 80.00 83.00 77.00 63.00 51.00 57.00 56.00 63.00 74.00 49.00 29.00 7.00 5.00 6.00 5.00 4.00 3.00 3.00 3.00 2.00 2.00 2.00 1.00 1.00 1.00 0.00 0.00 1.00 0.00 0.00 0.00 0.00 0.00 1.00 2.00 3.00 3.00 3.00 2.00 1.00 1.00 1.00 0.00 0.00 0.00 0.00 0.00 1.00 1.00 0.00 0.00 0.00 0.00 0.00 0.00 0.00 0.00 0.00 0.00 1.00 0.00 0.00 0.00 0.00 0.00 0.00 0.00 0.00 6.00 5.00 5.00 9.00 15.00 5.00 9.00 23.00 45.00 74.00 89.00 111.00 100.00 96.00 87.00 88.00 91.00 118.00 115.00 111.00 117.00 128.00 120.00 144.00 197.00 250.00 299.00 338.00 335.00 346.00 343.00 348.00 350.00 354.00 350.00 353.00 354.00 357.00 361.00 366.00 367.00 372.00 383.00 385.00 387.00 377.00 381.00 393.00 385.00 385.00 383.00 370.00 332.00 294.00 252.00 199.00 159.00 128.00 106.00 95.00 138.00 172.00 213.00 253.00 298.00 376.00 404.00 406.00 354.00 327.00 279.00 230.00 191.00 154.00 133.00 85.00 81.00 75.00 78.00 74.00 81.00 59.00 39.00 15.00 13.00 8.00 4.00 4.00 4.00 5.00 3.00 5.00 3.00 2.00 2.00 1.00 1.00 0.00 1.00 1.00 1.00 1.00 1.00 0.00 0.00 0.00 0.00 0.00 0.00 0.00 0.00 0.00 0.00 1.00 0.00 0.00 0.00 0.00 0.00 0.00 0.00 0.00 0.00 0.00 0.00 0.00 0.00 0.00 0.00 0.00 1.00 1.00 0.00 0.00 0.00 0.00 0.00 0.00 0.00 0.00 3.00 3.00 4.00 3.00 10.00 13.00 38.00 49.00 85.00 96.00 99.00 121.00 116.00 98.00 100.00 115.00 152.00 121.00 130.00 121.00 119.00 126.00 133.00 177.00 236.00 276.00 314.00 318.00 328.00 332.00 324.00 328.00 324.00 328.00 329.00 332.00 337.00 347.00 355.00 358.00 361.00 360.00 366.00 362.00 366.00 368.00 380.00 385.00 392.00 386.00 397.00 401.00 399.00 405.00 389.00 347.00 281.00 213.00 164.00 134.00 111.00 115.00 151.00 193.00 214.00 249.00 261.00 315.00 391.00 426.00 414.00 368.00 328.00 277.00 256.00 183.00 126.00 100.00 112.00 96.00 96.00 85.00 67.00 41.00 43.00 37.00 31.00 25.00 10.00 7.00 3.00 5.00 4.00 2.00 1.00 1.00 1.00 1.00 1.00 1.00 1.00 1.00 1.00 1.00 1.00 1.00 1.00 1.00 0.00 0.00 0.00 0.00 0.00 0.00 0.00 0.00 0.00 0.00 0.00 0.00 0.00 0.00 0.00 0.00 0.00 0.00 0.00 0.00 0.00 0.00 1.00 1.00 0.00 0.00 0.00 0.00 0.00 0.00 0.00 0.00 2.00 4.00 10.00 10.00 29.00 53.00 73.00 81.00 103.00 115.00 106.00 94.00 96.00 94.00 133.00 161.00 199.00 147.00 152.00 127.00 127.00 137.00 138.00 185.00 242.00 287.00 309.00 310.00 322.00 322.00 310.00 306.00 310.00 317.00 319.00 328.00 333.00 341.00 351.00 351.00 349.00 352.00 358.00 355.00 355.00 358.00 371.00 365.00 361.00 363.00 387.00 407.00 410.00 410.00 402.00 403.00 409.00 385.00 340.00 285.00 234.00 178.00 121.00 129.00 175.00 213.00 227.00 246.00 270.00 308.00 342.00 350.00 336.00 311.00 275.00 242.00 186.00 194.00 193.00 143.00 98.00 76.00 86.00 70.00 58.00 58.00 42.00 44.00 28.00 20.00 5.00 6.00 5.00 4.00 5.00 5.00 5.00 5.00 4.00 3.00 3.00 2.00 1.00 1.00 1.00 2.00 2.00 1.00 1.00 0.00 0.00 0.00 0.00 0.00 0.00 0.00 0.00 0.00 0.00 0.00 0.00 0.00 0.00 0.00 0.00 0.00 0.00 0.00 0.00 0.00 0.00 0.00 0.00 0.00 0.00 0.00 0.00 0.00 0.00 0.00 7.00 1.00 11.00 12.00 34.00 79.00 109.00 127.00 125.00 105.00 85.00 89.00 118.00 132.00 174.00 206.00 219.00 186.00 174.00 177.00 176.00 165.00 140.00 152.00 198.00 254.00 288.00 304.00 317.00 322.00 313.00 315.00 317.00 320.00 323.00 329.00 336.00 340.00 345.00 344.00 343.00 349.00 359.00 358.00 356.00 356.00 370.00 377.00 370.00 364.00 369.00 375.00 380.00 399.00 404.00 411.00 422.00 428.00 435.00 430.00 399.00 367.00 308.00 235.00 125.00 93.00 152.00 185.00 225.00 256.00 276.00 259.00 241.00 244.00 264.00 295.00 292.00 281.00 278.00 219.00 162.00 81.00 87.00 84.00 76.00 81.00 74.00 58.00 41.00 34.00 17.00 8.00 6.00 3.00 5.00 8.00 11.00 18.00 19.00 18.00 13.00 7.00 3.00 2.00 2.00 3.00 2.00 1.00 1.00 1.00 1.00 2.00 1.00 1.00 0.00 0.00 0.00 0.00 0.00 0.00 0.00 0.00 0.00 0.00 0.00 0.00 0.00 0.00 1.00 0.00 0.00 0.00 0.00 0.00 0.00 0.00 0.00 0.00 0.00 0.00 8.00 3.00 8.00 15.00 37.00 85.00 114.00 127.00 112.00 90.00 76.00 95.00 128.00 160.00 191.00 233.00 240.00 231.00 239.00 213.00 208.00 190.00 168.00 145.00 143.00 188.00 250.00 275.00 292.00 305.00 299.00 287.00 285.00 285.00 277.00 286.00 298.00 309.00 327.00 333.00 341.00 353.00 361.00 358.00 350.00 346.00 351.00 357.00 358.00 364.00 367.00 378.00 376.00 390.00 394.00 401.00 413.00 430.00 439.00 434.00 438.00 450.00 441.00 404.00 374.00 316.00 223.00 114.00 111.00 169.00 213.00 237.00 262.00 295.00 336.00 344.00 358.00 327.00 318.00 299.00 251.00 194.00 163.00 124.00 94.00 83.00 95.00 96.00 107.00 86.00 60.00 33.00 22.00 9.00 4.00 6.00 9.00 17.00 21.00 23.00 19.00 14.00 9.00 5.00 2.00 2.00 2.00 2.00 2.00 2.00 2.00 2.00 1.00 2.00 1.00 1.00 1.00 0.00 0.00 0.00 0.00 0.00 0.00 0.00 0.00 0.00 1.00 0.00 1.00 0.00 0.00 0.00 0.00 1.00 0.00 1.00 0.00 0.00 0.00 0.00 4.00 4.00 3.00 17.00 36.00 72.00 105.00 132.00 112.00 92.00 88.00 98.00 157.00 205.00 221.00 264.00 284.00 271.00 244.00 196.00 196.00 189.00 175.00 161.00 130.00 128.00 140.00 171.00 212.00 251.00 277.00 287.00 293.00 295.00 284.00 280.00 289.00 303.00 321.00 325.00 325.00 332.00 333.00 331.00 330.00 339.00 350.00 358.00 354.00 349.00 356.00 372.00 376.00 385.00 382.00 386.00 381.00 375.00 388.00 400.00 419.00 428.00 433.00 430.00 436.00 412.00 365.00 318.00 233.00 147.00 122.00 165.00 213.00 265.00 311.00 325.00 339.00 341.00 328.00 334.00 313.00 272.00 259.00 222.00 182.00 110.00 98.00 83.00 85.00 66.00 71.00 64.00 50.00 34.00 23.00 13.00 6.00 7.00 9.00 12.00 10.00 11.00 11.00 11.00 8.00 6.00 3.00 4.00 3.00 2.00 3.00 2.00 1.00 2.00 2.00 1.00 1.00 1.00 0.00 0.00 0.00 1.00 0.00 0.00 0.00 0.00 0.00 0.00 0.00 1.00 0.00 0.00 0.00 0.00 0.00 0.00 0.00 0.00 0.00 0.00 3.00 5.00 4.00 14.00 36.00 65.00 100.00 124.00 111.00 96.00 88.00 117.00 193.00 239.00 253.00 270.00 268.00 232.00 197.00 178.00 181.00 175.00 166.00 162.00 135.00 134.00 129.00 153.00 199.00 251.00 259.00 260.00 269.00 283.00 282.00 278.00 287.00 302.00 322.00 331.00 332.00 328.00 324.00 333.00 334.00 347.00 360.00 369.00 358.00 347.00 348.00 355.00 354.00 363.00 364.00 374.00 362.00 357.00 367.00 382.00 396.00 410.00 414.00 426.00 436.00 431.00 421.00 397.00 370.00 330.00 259.00 189.00 149.00 112.00 126.00 215.00 260.00 303.00 321.00 339.00 347.00 307.00 298.00 259.00 236.00 192.00 156.00 123.00 92.00 62.00 48.00 69.00 63.00 69.00 62.00 57.00 38.00 21.00 11.00 3.00 4.00 6.00 8.00 10.00 9.00 12.00 12.00 9.00 4.00 2.00 2.00 2.00 1.00 1.00 1.00 1.00 1.00 1.00 0.00 0.00 0.00 0.00 0.00 0.00 0.00 0.00 0.00 0.00 0.00 1.00 0.00 0.00 0.00 1.00 0.00 0.00 0.00 0.00 0.00 0.00 3.00 4.00 5.00 11.00 26.00 54.00 90.00 103.00 97.00 101.00 71.00 126.00 208.00 246.00 262.00 242.00 236.00 232.00 215.00 203.00 179.00 160.00 147.00 160.00 158.00 173.00 202.00 242.00 261.00 281.00 274.00 268.00 246.00 248.00 263.00 271.00 279.00 289.00 301.00 317.00 320.00 312.00 306.00 318.00 323.00 335.00 342.00 342.00 332.00 328.00 332.00 345.00 347.00 347.00 354.00 352.00 345.00 331.00 335.00 352.00 365.00 382.00 409.00 425.00 422.00 415.00 426.00 448.00 432.00 389.00 342.00 296.00 253.00 199.00 169.00 143.00 138.00 175.00 217.00 250.00 285.00 296.00 299.00 282.00 249.00 201.00 162.00 138.00 112.00 79.00 51.00 57.00 46.00 63.00 58.00 62.00 59.00 46.00 39.00 20.00 9.00 5.00 5.00 6.00 9.00 12.00 15.00 14.00 11.00 8.00 5.00 3.00 1.00 1.00 1.00 2.00 2.00 1.00 1.00 1.00 1.00 0.00 1.00 1.00 1.00 0.00 1.00 1.00 1.00 0.00 0.00 0.00 0.00 0.00 1.00 0.00 1.00 0.00 0.00 0.00 6.00 4.00 6.00 5.00 2.00 16.00 60.00 102.00 105.00 108.00 68.00 123.00 211.00 251.00 271.00 250.00 241.00 250.00 228.00 212.00 179.00 165.00 157.00 187.00 235.00 263.00 273.00 281.00 290.00 298.00 299.00 297.00 297.00 294.00 296.00 297.00 302.00 306.00 301.00 303.00 312.00 307.00 305.00 307.00 309.00 305.00 312.00 311.00 315.00 317.00 322.00 339.00 343.00 344.00 345.00 339.00 339.00 329.00 327.00 335.00 338.00 347.00 363.00 376.00 386.00 391.00 410.00 430.00 429.00 417.00 403.00 390.00 356.00 316.00 272.00 242.00 191.00 137.00 137.00 150.00 176.00 209.00 262.00 335.00 297.00 260.00 185.00 157.00 121.00 113.00 70.00 74.00 39.00 49.00 48.00 65.00 68.00 60.00 60.00 51.00 32.00 17.00 7.00 7.00 8.00 11.00 15.00 17.00 19.00 17.00 11.00 8.00 5.00 3.00 3.00 3.00 2.00 2.00 2.00 2.00 1.00 1.00 2.00 2.00 1.00 0.00 0.00 1.00 1.00 1.00 0.00 0.00 1.00 0.00 0.00 0.00 0.00 0.00 0.00 0.00 7.00 8.00 13.00 11.00 4.00 5.00 30.00 67.00 103.00 115.00 86.00 96.00 178.00 244.00 276.00 279.00 262.00 260.00 230.00 220.00 206.00 203.00 184.00 193.00 246.00 272.00 273.00 271.00 286.00 297.00 306.00 312.00 318.00 322.00 319.00 318.00 324.00 328.00 322.00 316.00 331.00 322.00 316.00 316.00 318.00 315.00 321.00 320.00 323.00 323.00 320.00 329.00 331.00 337.00 341.00 344.00 345.00 343.00 345.00 338.00 339.00 348.00 368.00 377.00 385.00 386.00 388.00 398.00 411.00 405.00 413.00 407.00 379.00 347.00 328.00 316.00 294.00 227.00 141.00 132.00 164.00 151.00 174.00 288.00 287.00 292.00 229.00 215.00 164.00 135.00 85.00 77.00 46.00 50.00 52.00 67.00 66.00 63.00 59.00 57.00 45.00 35.00 24.00 13.00 9.00 10.00 12.00 15.00 17.00 17.00 14.00 11.00 6.00 4.00 3.00 3.00 3.00 2.00 1.00 1.00 2.00 2.00 2.00 1.00 1.00 0.00 0.00 0.00 0.00 0.00 0.00 0.00 1.00 1.00 0.00 0.00 1.00 0.00 0.00 0.00 5.00 10.00 15.00 9.00 4.00 4.00 14.00 42.00 91.00 112.00 94.00 80.00 118.00 198.00 248.00 265.00 261.00 256.00 234.00 223.00 222.00 218.00 194.00 188.00 239.00 278.00 283.00 279.00 281.00 291.00 300.00 310.00 311.00 315.00 320.00 325.00 330.00 337.00 337.00 329.00 338.00 338.00 336.00 340.00 340.00 340.00 345.00 350.00 352.00 354.00 344.00 344.00 336.00 342.00 343.00 349.00 343.00 340.00 344.00 338.00 342.00 350.00 362.00 364.00 369.00 377.00 375.00 391.00 389.00 402.00 414.00 418.00 428.00 427.00 408.00 363.00 330.00 293.00 247.00 197.00 155.00 105.00 127.00 216.00 251.00 301.00 277.00 244.00 201.00 151.00 119.00 93.00 56.00 60.00 60.00 60.00 61.00 60.00 55.00 55.00 51.00 47.00 40.00 31.00 20.00 11.00 7.00 6.00 8.00 13.00 13.00 10.00 6.00 3.00 2.00 2.00 2.00 1.00 2.00 1.00 2.00 2.00 2.00 1.00 0.00 0.00 0.00 1.00 0.00 0.00 1.00 1.00 1.00 1.00 0.00 0.00 1.00 0.00 0.00 0.00 4.00 5.00 8.00 7.00 6.00 8.00 6.00 30.00 71.00 105.00 108.00 88.00 78.00 144.00 195.00 240.00 240.00 254.00 241.00 231.00 212.00 209.00 196.00 171.00 190.00 235.00 272.00 287.00 289.00 287.00 299.00 304.00 306.00 311.00 317.00 322.00 323.00 3