# vtk DataFile Version 2.0
VTK from Matlab
ASCII
DATASET STRUCTURED_POINTS
DIMENSIONS 140 68 44
SPACING 1 1 1
ORIGIN 0 0 0
POINT_DATA 418880
SCALARS mag float 1
LOOKUP_TABLE default
0.00 0.00 0.00 0.00 0.00 0.00 0.00 1.00 0.00 0.00 0.00 0.00 0.00 0.00 0.00 0.00 0.00 0.00 0.00 0.00 0.00 0.00 0.00 0.00 1.00 0.00 1.00 1.00 0.00 0.00 0.00 0.00 0.00 0.00 0.00 1.00 1.00 1.00 0.00 0.00 0.00 1.00 0.00 0.00 0.00 0.00 0.00 0.00 0.00 0.00 1.00 1.00 1.00 1.00 1.00 0.00 0.00 0.00 0.00 0.00 1.00 1.00 1.00 1.00 1.00 0.00 0.00 0.00 0.00 0.00 0.00 0.00 0.00 0.00 0.00 0.00 0.00 0.00 0.00 0.00 0.00 0.00 0.00 0.00 0.00 0.00 0.00 0.00 0.00 0.00 0.00 0.00 0.00 0.00 0.00 0.00 0.00 0.00 0.00 0.00 0.00 0.00 0.00 0.00 0.00 0.00 0.00 0.00 0.00 0.00 0.00 0.00 0.00 0.00 0.00 0.00 0.00 0.00 0.00 0.00 0.00 0.00 0.00 0.00 0.00 0.00 0.00 0.00 0.00 0.00 0.00 0.00 0.00 0.00 0.00 0.00 0.00 0.00 0.00 0.00 0.00 0.00 0.00 0.00 0.00 0.00 0.00 0.00 0.00 0.00 0.00 0.00 0.00 0.00 0.00 0.00 1.00 1.00 0.00 0.00 0.00 0.00 0.00 0.00 0.00 0.00 0.00 0.00 0.00 0.00 0.00 0.00 0.00 0.00 0.00 1.00 1.00 1.00 0.00 0.00 0.00 1.00 0.00 0.00 0.00 0.00 0.00 0.00 0.00 0.00 0.00 0.00 0.00 0.00 0.00 0.00 0.00 0.00 0.00 0.00 0.00 1.00 1.00 1.00 1.00 1.00 0.00 0.00 0.00 0.00 0.00 0.00 0.00 0.00 0.00 0.00 0.00 0.00 0.00 0.00 0.00 0.00 0.00 0.00 0.00 0.00 0.00 0.00 0.00 0.00 0.00 0.00 0.00 0.00 0.00 0.00 0.00 0.00 0.00 0.00 0.00 0.00 0.00 0.00 0.00 0.00 0.00 0.00 0.00 0.00 0.00 0.00 0.00 0.00 0.00 0.00 0.00 0.00 0.00 0.00 0.00 0.00 0.00 0.00 0.00 0.00 0.00 0.00 0.00 0.00 0.00 0.00 0.00 0.00 0.00 0.00 0.00 0.00 0.00 0.00 0.00 0.00 0.00 0.00 0.00 0.00 0.00 0.00 0.00 1.00 1.00 0.00 0.00 0.00 0.00 0.00 1.00 1.00 0.00 0.00 0.00 0.00 0.00 0.00 0.00 0.00 0.00 0.00 0.00 0.00 1.00 1.00 1.00 1.00 0.00 1.00 1.00 0.00 0.00 0.00 0.00 0.00 0.00 0.00 0.00 0.00 0.00 0.00 0.00 0.00 0.00 0.00 0.00 0.00 0.00 0.00 0.00 0.00 0.00 0.00 0.00 0.00 0.00 0.00 0.00 0.00 0.00 0.00 0.00 0.00 0.00 0.00 0.00 0.00 0.00 0.00 0.00 0.00 0.00 0.00 0.00 0.00 0.00 0.00 0.00 0.00 0.00 0.00 0.00 0.00 0.00 0.00 0.00 0.00 0.00 0.00 0.00 0.00 0.00 0.00 0.00 0.00 0.00 0.00 0.00 0.00 0.00 0.00 0.00 0.00 0.00 0.00 0.00 0.00 0.00 0.00 0.00 0.00 0.00 0.00 0.00 0.00 0.00 0.00 0.00 0.00 0.00 0.00 0.00 0.00 0.00 0.00 0.00 0.00 0.00 0.00 0.00 0.00 0.00 0.00 0.00 0.00 0.00 0.00 0.00 1.00 0.00 0.00 0.00 1.00 1.00 0.00 0.00 1.00 1.00 1.00 1.00 1.00 1.00 1.00 1.00 0.00 0.00 0.00 0.00 0.00 0.00 0.00 0.00 0.00 0.00 1.00 1.00 1.00 1.00 1.00 1.00 0.00 0.00 0.00 0.00 0.00 0.00 0.00 0.00 0.00 1.00 0.00 0.00 0.00 0.00 0.00 0.00 0.00 0.00 0.00 0.00 0.00 0.00 0.00 0.00 0.00 0.00 0.00 0.00 0.00 0.00 0.00 0.00 0.00 0.00 0.00 0.00 0.00 0.00 0.00 0.00 0.00 0.00 0.00 0.00 0.00 0.00 0.00 0.00 0.00 0.00 0.00 0.00 0.00 0.00 0.00 0.00 0.00 0.00 0.00 0.00 0.00 0.00 0.00 0.00 0.00 0.00 0.00 0.00 0.00 0.00 0.00 0.00 0.00 0.00 0.00 0.00 0.00 0.00 0.00 0.00 0.00 0.00 0.00 0.00 0.00 0.00 0.00 0.00 0.00 0.00 0.00 0.00 0.00 0.00 0.00 0.00 0.00 0.00 0.00 0.00 0.00 0.00 0.00 0.00 0.00 0.00 0.00 0.00 0.00 0.00 1.00 0.00 1.00 1.00 0.00 0.00 0.00 1.00 1.00 2.00 2.00 3.00 2.00 1.00 0.00 1.00 1.00 1.00 1.00 0.00 0.00 0.00 0.00 0.00 1.00 1.00 1.00 1.00 0.00 0.00 0.00 0.00 0.00 0.00 0.00 0.00 0.00 0.00 0.00 0.00 0.00 0.00 1.00 0.00 0.00 0.00 0.00 0.00 0.00 0.00 0.00 0.00 0.00 0.00 0.00 0.00 0.00 0.00 0.00 0.00 0.00 0.00 0.00 0.00 0.00 0.00 0.00 0.00 0.00 0.00 0.00 0.00 0.00 0.00 0.00 0.00 0.00 0.00 0.00 0.00 0.00 0.00 0.00 0.00 0.00 0.00 0.00 0.00 0.00 0.00 0.00 0.00 0.00 0.00 0.00 0.00 0.00 0.00 0.00 0.00 0.00 0.00 0.00 0.00 0.00 0.00 0.00 0.00 0.00 0.00 0.00 0.00 0.00 0.00 0.00 0.00 0.00 0.00 0.00 0.00 0.00 0.00 0.00 0.00 0.00 0.00 0.00 0.00 0.00 0.00 0.00 0.00 0.00 0.00 0.00 0.00 0.00 0.00 0.00 1.00 1.00 0.00 0.00 0.00 0.00 0.00 0.00 0.00 1.00 1.00 1.00 1.00 2.00 1.00 1.00 1.00 1.00 1.00 0.00 0.00 0.00 0.00 1.00 1.00 1.00 1.00 1.00 1.00 0.00 1.00 1.00 1.00 0.00 0.00 0.00 0.00 0.00 0.00 0.00 0.00 0.00 0.00 0.00 0.00 0.00 0.00 0.00 0.00 0.00 0.00 0.00 0.00 0.00 0.00 0.00 0.00 0.00 0.00 0.00 0.00 0.00 0.00 0.00 0.00 0.00 0.00 0.00 0.00 0.00 0.00 0.00 0.00 0.00 0.00 0.00 0.00 0.00 0.00 0.00 0.00 0.00 0.00 0.00 0.00 0.00 0.00 0.00 0.00 0.00 0.00 0.00 0.00 0.00 0.00 0.00 0.00 0.00 0.00 0.00 0.00 0.00 0.00 0.00 0.00 0.00 0.00 0.00 0.00 0.00 0.00 0.00 0.00 0.00 0.00 0.00 0.00 0.00 0.00 0.00 0.00 0.00 0.00 0.00 0.00 0.00 0.00 0.00 0.00 0.00 0.00 0.00 0.00 0.00 0.00 0.00 0.00 0.00 1.00 1.00 1.00 1.00 0.00 0.00 0.00 1.00 1.00 0.00 0.00 0.00 0.00 1.00 1.00 1.00 1.00 0.00 0.00 0.00 0.00 0.00 0.00 0.00 0.00 1.00 1.00 1.00 1.00 1.00 1.00 1.00 1.00 1.00 1.00 1.00 0.00 0.00 0.00 0.00 0.00 0.00 0.00 0.00 0.00 0.00 0.00 0.00 0.00 0.00 0.00 0.00 0.00 0.00 0.00 0.00 0.00 0.00 0.00 0.00 0.00 0.00 0.00 0.00 0.00 0.00 0.00 0.00 0.00 0.00 0.00 0.00 0.00 0.00 0.00 0.00 0.00 0.00 0.00 0.00 0.00 0.00 0.00 0.00 0.00 0.00 0.00 0.00 0.00 0.00 0.00 0.00 0.00 0.00 0.00 0.00 0.00 0.00 0.00 0.00 0.00 0.00 0.00 0.00 0.00 0.00 0.00 0.00 0.00 0.00 0.00 0.00 0.00 0.00 0.00 0.00 0.00 0.00 0.00 0.00 0.00 0.00 0.00 0.00 0.00 0.00 0.00 0.00 0.00 0.00 0.00 0.00 0.00 0.00 0.00 0.00 0.00 0.00 0.00 0.00 1.00 1.00 1.00 1.00 0.00 1.00 1.00 1.00 1.00 0.00 0.00 0.00 1.00 2.00 1.00 1.00 1.00 1.00 0.00 0.00 0.00 0.00 0.00 0.00 0.00 0.00 0.00 0.00 1.00 1.00 1.00 1.00 1.00 1.00 1.00 1.00 0.00 0.00 0.00 0.00 0.00 0.00 1.00 0.00 0.00 0.00 0.00 0.00 0.00 0.00 0.00 0.00 0.00 0.00 0.00 0.00 0.00 0.00 0.00 0.00 0.00 0.00 0.00 0.00 0.00 0.00 0.00 0.00 0.00 0.00 0.00 0.00 0.00 0.00 0.00 0.00 0.00 0.00 0.00 0.00 0.00 0.00 0.00 0.00 0.00 0.00 0.00 0.00 0.00 1.00 0.00 0.00 0.00 0.00 0.00 0.00 0.00 0.00 0.00 0.00 0.00 0.00 0.00 0.00 0.00 0.00 0.00 0.00 0.00 0.00 0.00 0.00 0.00 0.00 0.00 0.00 0.00 0.00 0.00 0.00 0.00 0.00 0.00 0.00 0.00 0.00 0.00 0.00 0.00 0.00 0.00 0.00 0.00 0.00 0.00 0.00 0.00 0.00 0.00 0.00 0.00 1.00 1.00 1.00 0.00 0.00 1.00 1.00 1.00 0.00 0.00 1.00 1.00 2.00 2.00 1.00 1.00 1.00 0.00 0.00 0.00 0.00 0.00 0.00 0.00 1.00 1.00 0.00 1.00 0.00 1.00 1.00 1.00 1.00 1.00 1.00 0.00 0.00 0.00 0.00 0.00 0.00 1.00 0.00 0.00 0.00 1.00 2.00 1.00 0.00 1.00 1.00 1.00 0.00 0.00 0.00 0.00 0.00 0.00 0.00 0.00 0.00 0.00 0.00 0.00 0.00 0.00 0.00 0.00 0.00 0.00 0.00 0.00 0.00 0.00 0.00 0.00 0.00 0.00 0.00 0.00 0.00 0.00 0.00 0.00 0.00 0.00 0.00 0.00 1.00 0.00 0.00 0.00 0.00 0.00 0.00 0.00 0.00 0.00 0.00 0.00 0.00 0.00 0.00 0.00 0.00 0.00 0.00 0.00 0.00 0.00 0.00 0.00 0.00 0.00 0.00 0.00 0.00 0.00 0.00 0.00 0.00 0.00 0.00 0.00 0.00 0.00 0.00 0.00 0.00 0.00 0.00 0.00 0.00 0.00 0.00 0.00 0.00 0.00 1.00 0.00 0.00 1.00 1.00 0.00 0.00 1.00 0.00 1.00 0.00 1.00 1.00 2.00 2.00 2.00 2.00 2.00 1.00 0.00 0.00 0.00 0.00 0.00 0.00 0.00 0.00 1.00 0.00 1.00 0.00 1.00 2.00 2.00 2.00 2.00 1.00 1.00 2.00 1.00 0.00 0.00 0.00 0.00 0.00 0.00 0.00 0.00 2.00 1.00 1.00 1.00 1.00 1.00 1.00 1.00 1.00 1.00 1.00 1.00 0.00 1.00 1.00 1.00 1.00 0.00 0.00 0.00 0.00 0.00 0.00 0.00 0.00 0.00 0.00 0.00 0.00 0.00 0.00 0.00 0.00 0.00 0.00 0.00 0.00 0.00 0.00 0.00 0.00 0.00 0.00 0.00 0.00 0.00 0.00 0.00 0.00 0.00 0.00 0.00 0.00 0.00 0.00 0.00 0.00 0.00 0.00 0.00 0.00 0.00 0.00 0.00 0.00 0.00 0.00 0.00 0.00 0.00 0.00 0.00 0.00 0.00 0.00 0.00 0.00 0.00 0.00 0.00 0.00 0.00 0.00 0.00 0.00 0.00 0.00 0.00 0.00 0.00 0.00 0.00 0.00 0.00 0.00 0.00 1.00 0.00 0.00 1.00 0.00 1.00 1.00 2.00 2.00 2.00 1.00 1.00 1.00 1.00 1.00 0.00 0.00 0.00 0.00 0.00 0.00 0.00 0.00 1.00 1.00 1.00 1.00 2.00 2.00 2.00 3.00 3.00 3.00 3.00 3.00 3.00 2.00 2.00 2.00 1.00 0.00 1.00 0.00 1.00 3.00 2.00 1.00 1.00 1.00 1.00 1.00 1.00 1.00 1.00 1.00 1.00 1.00 1.00 1.00 0.00 1.00 1.00 0.00 1.00 0.00 0.00 0.00 0.00 0.00 0.00 0.00 0.00 0.00 0.00 0.00 0.00 0.00 0.00 0.00 0.00 0.00 0.00 0.00 0.00 0.00 0.00 0.00 0.00 0.00 0.00 0.00 0.00 0.00 0.00 0.00 0.00 0.00 0.00 0.00 0.00 0.00 0.00 0.00 0.00 0.00 0.00 0.00 0.00 0.00 0.00 0.00 0.00 0.00 0.00 0.00 0.00 0.00 0.00 0.00 0.00 0.00 0.00 0.00 0.00 0.00 0.00 0.00 0.00 0.00 0.00 0.00 0.00 0.00 0.00 0.00 0.00 0.00 0.00 0.00 0.00 0.00 0.00 0.00 0.00 0.00 1.00 1.00 2.00 1.00 1.00 1.00 1.00 1.00 1.00 1.00 0.00 0.00 0.00 1.00 0.00 1.00 1.00 1.00 2.00 1.00 1.00 2.00 2.00 2.00 2.00 3.00 3.00 3.00 3.00 3.00 3.00 4.00 3.00 2.00 1.00 0.00 0.00 0.00 1.00 2.00 1.00 1.00 0.00 0.00 0.00 0.00 0.00 0.00 0.00 0.00 1.00 0.00 0.00 0.00 0.00 0.00 0.00 0.00 0.00 0.00 0.00 0.00 0.00 0.00 0.00 0.00 0.00 0.00 0.00 0.00 0.00 0.00 0.00 0.00 0.00 0.00 0.00 0.00 0.00 0.00 0.00 0.00 0.00 0.00 0.00 0.00 0.00 0.00 0.00 0.00 0.00 0.00 0.00 0.00 0.00 0.00 0.00 0.00 0.00 0.00 0.00 0.00 0.00 0.00 0.00 0.00 0.00 0.00 0.00 0.00 0.00 0.00 0.00 0.00 0.00 0.00 0.00 0.00 0.00 0.00 0.00 0.00 0.00 0.00 0.00 0.00 0.00 0.00 0.00 0.00 0.00 0.00 0.00 0.00 0.00 0.00 0.00 0.00 1.00 0.00 0.00 0.00 1.00 1.00 1.00 1.00 2.00 1.00 1.00 2.00 1.00 1.00 1.00 1.00 1.00 1.00 2.00 2.00 3.00 1.00 1.00 2.00 2.00 1.00 2.00 2.00 2.00 2.00 2.00 1.00 1.00 2.00 2.00 2.00 1.00 0.00 0.00 0.00 0.00 0.00 0.00 0.00 0.00 0.00 0.00 0.00 0.00 0.00 0.00 0.00 1.00 0.00 0.00 0.00 0.00 0.00 0.00 0.00 0.00 0.00 0.00 0.00 0.00 1.00 0.00 0.00 0.00 0.00 0.00 0.00 0.00 0.00 0.00 0.00 0.00 0.00 0.00 0.00 0.00 0.00 0.00 0.00 0.00 0.00 0.00 0.00 0.00 0.00 0.00 0.00 0.00 0.00 0.00 0.00 0.00 0.00 0.00 0.00 0.00 0.00 0.00 0.00 0.00 0.00 0.00 0.00 0.00 0.00 0.00 0.00 0.00 0.00 0.00 0.00 0.00 0.00 0.00 0.00 0.00 0.00 0.00 0.00 0.00 0.00 0.00 0.00 0.00 0.00 0.00 0.00 0.00 0.00 0.00 0.00 0.00 1.00 1.00 0.00 0.00 0.00 0.00 1.00 1.00 1.00 0.00 0.00 2.00 1.00 2.00 4.00 3.00 2.00 1.00 2.00 2.00 2.00 1.00 1.00 1.00 1.00 1.00 1.00 1.00 1.00 1.00 3.00 4.00 3.00 1.00 1.00 1.00 0.00 1.00 1.00 1.00 0.00 0.00 0.00 0.00 0.00 0.00 1.00 1.00 0.00 0.00 0.00 0.00 0.00 0.00 1.00 1.00 1.00 1.00 1.00 1.00 0.00 0.00 0.00 0.00 1.00 1.00 1.00 1.00 1.00 1.00 0.00 0.00 0.00 0.00 1.00 1.00 0.00 0.00 0.00 0.00 0.00 0.00 0.00 0.00 0.00 0.00 0.00 0.00 0.00 0.00 0.00 0.00 0.00 0.00 0.00 0.00 0.00 0.00 0.00 0.00 0.00 0.00 0.00 0.00 0.00 0.00 0.00 0.00 0.00 0.00 0.00 0.00 0.00 0.00 0.00 0.00 0.00 0.00 0.00 0.00 0.00 0.00 0.00 0.00 0.00 0.00 0.00 0.00 0.00 0.00 0.00 0.00 0.00 0.00 0.00 0.00 0.00 0.00 0.00 1.00 1.00 1.00 0.00 0.00 0.00 1.00 0.00 1.00 1.00 1.00 0.00 1.00 1.00 2.00 4.00 6.00 3.00 1.00 2.00 2.00 2.00 1.00 1.00 1.00 2.00 2.00 2.00 1.00 1.00 1.00 3.00 3.00 2.00 2.00 2.00 1.00 1.00 1.00 1.00 1.00 1.00 1.00 0.00 1.00 0.00 0.00 0.00 0.00 1.00 1.00 0.00 0.00 1.00 1.00 1.00 1.00 1.00 1.00 2.00 2.00 2.00 2.00 1.00 1.00 1.00 1.00 1.00 1.00 1.00 1.00 0.00 0.00 0.00 0.00 1.00 1.00 1.00 0.00 1.00 1.00 1.00 1.00 0.00 0.00 0.00 0.00 0.00 0.00 0.00 0.00 0.00 0.00 0.00 0.00 0.00 0.00 0.00 0.00 0.00 0.00 0.00 0.00 0.00 0.00 0.00 0.00 0.00 0.00 0.00 0.00 0.00 0.00 0.00 0.00 0.00 0.00 0.00 0.00 0.00 0.00 0.00 0.00 0.00 0.00 0.00 0.00 0.00 0.00 0.00 0.00 0.00 0.00 0.00 0.00 0.00 0.00 0.00 0.00 0.00 0.00 0.00 1.00 0.00 0.00 0.00 1.00 0.00 1.00 1.00 1.00 1.00 2.00 2.00 1.00 2.00 3.00 1.00 0.00 1.00 1.00 1.00 1.00 1.00 1.00 2.00 1.00 1.00 1.00 1.00 1.00 1.00 1.00 1.00 1.00 3.00 3.00 3.00 5.00 5.00 4.00 2.00 2.00 1.00 1.00 2.00 2.00 2.00 3.00 2.00 2.00 2.00 2.00 1.00 2.00 1.00 1.00 1.00 1.00 1.00 1.00 1.00 1.00 0.00 0.00 1.00 1.00 1.00 1.00 1.00 1.00 0.00 0.00 0.00 0.00 1.00 1.00 1.00 0.00 1.00 1.00 1.00 1.00 1.00 0.00 0.00 0.00 1.00 0.00 0.00 0.00 0.00 0.00 0.00 0.00 0.00 0.00 0.00 0.00 0.00 0.00 0.00 0.00 0.00 0.00 0.00 0.00 0.00 0.00 0.00 0.00 0.00 0.00 0.00 0.00 0.00 0.00 0.00 0.00 0.00 0.00 0.00 0.00 0.00 0.00 0.00 0.00 0.00 0.00 0.00 0.00 0.00 0.00 0.00 0.00 0.00 0.00 0.00 0.00 0.00 1.00 0.00 0.00 0.00 0.00 0.00 1.00 0.00 0.00 1.00 1.00 1.00 1.00 1.00 1.00 1.00 1.00 1.00 1.00 2.00 2.00 2.00 2.00 1.00 2.00 0.00 0.00 0.00 0.00 2.00 8.00 17.00 23.00 21.00 19.00 11.00 3.00 0.00 4.00 8.00 9.00 4.00 3.00 2.00 2.00 1.00 3.00 2.00 4.00 4.00 4.00 4.00 4.00 3.00 3.00 2.00 2.00 3.00 2.00 2.00 2.00 2.00 1.00 1.00 0.00 0.00 1.00 0.00 0.00 0.00 0.00 0.00 0.00 0.00 0.00 1.00 0.00 1.00 0.00 1.00 1.00 1.00 0.00 0.00 0.00 0.00 0.00 1.00 1.00 0.00 0.00 0.00 0.00 0.00 0.00 0.00 0.00 0.00 0.00 0.00 0.00 0.00 0.00 0.00 0.00 0.00 0.00 0.00 0.00 0.00 0.00 0.00 0.00 0.00 0.00 0.00 0.00 0.00 0.00 0.00 0.00 0.00 0.00 0.00 0.00 0.00 0.00 0.00 0.00 0.00 0.00 0.00 0.00 0.00 0.00 0.00 0.00 0.00 0.00 1.00 1.00 0.00 0.00 0.00 0.00 1.00 0.00 1.00 1.00 1.00 0.00 0.00 0.00 0.00 1.00 1.00 1.00 1.00 1.00 1.00 2.00 2.00 4.00 3.00 6.00 9.00 15.00 29.00 41.00 50.00 60.00 66.00 77.00 66.00 51.00 45.00 38.00 33.00 32.00 25.00 21.00 13.00 5.00 2.00 1.00 1.00 1.00 2.00 1.00 2.00 2.00 2.00 4.00 4.00 3.00 3.00 2.00 3.00 2.00 3.00 2.00 2.00 2.00 2.00 1.00 1.00 1.00 0.00 0.00 0.00 0.00 0.00 0.00 0.00 0.00 0.00 1.00 0.00 1.00 1.00 1.00 0.00 0.00 0.00 0.00 0.00 0.00 0.00 1.00 0.00 0.00 0.00 0.00 0.00 0.00 0.00 0.00 0.00 0.00 0.00 0.00 0.00 0.00 0.00 0.00 0.00 0.00 0.00 0.00 0.00 0.00 0.00 0.00 0.00 0.00 0.00 0.00 0.00 0.00 0.00 0.00 0.00 0.00 0.00 0.00 0.00 0.00 0.00 0.00 0.00 0.00 0.00 0.00 0.00 0.00 0.00 0.00 0.00 0.00 1.00 1.00 0.00 0.00 0.00 1.00 1.00 2.00 2.00 1.00 2.00 2.00 2.00 1.00 0.00 1.00 1.00 1.00 1.00 0.00 2.00 3.00 7.00 15.00 25.00 41.00 53.00 62.00 75.00 85.00 92.00 97.00 90.00 87.00 81.00 71.00 84.00 83.00 82.00 70.00 63.00 56.00 47.00 38.00 21.00 5.00 2.00 3.00 2.00 1.00 2.00 1.00 1.00 2.00 1.00 1.00 1.00 0.00 1.00 1.00 2.00 1.00 1.00 1.00 1.00 1.00 1.00 1.00 0.00 1.00 1.00 1.00 0.00 0.00 0.00 0.00 0.00 0.00 0.00 0.00 0.00 0.00 0.00 0.00 0.00 0.00 0.00 0.00 0.00 0.00 0.00 0.00 0.00 0.00 0.00 0.00 0.00 0.00 0.00 0.00 0.00 0.00 0.00 0.00 0.00 0.00 0.00 0.00 0.00 0.00 0.00 0.00 0.00 0.00 0.00 0.00 0.00 0.00 0.00 0.00 0.00 0.00 0.00 0.00 0.00 0.00 0.00 0.00 0.00 0.00 0.00 0.00 0.00 0.00 0.00 0.00 0.00 0.00 0.00 1.00 1.00 1.00 1.00 1.00 0.00 1.00 1.00 1.00 2.00 1.00 3.00 3.00 2.00 1.00 0.00 1.00 1.00 1.00 1.00 1.00 4.00 13.00 25.00 42.00 57.00 77.00 88.00 86.00 83.00 71.00 76.00 78.00 79.00 96.00 103.00 103.00 102.00 95.00 98.00 95.00 84.00 77.00 87.00 95.00 84.00 58.00 48.00 29.00 18.00 8.00 4.00 1.00 4.00 5.00 3.00 2.00 1.00 0.00 1.00 1.00 1.00 0.00 0.00 1.00 1.00 0.00 0.00 0.00 0.00 0.00 1.00 1.00 0.00 0.00 0.00 0.00 0.00 0.00 0.00 0.00 0.00 0.00 0.00 0.00 0.00 0.00 0.00 0.00 0.00 1.00 0.00 0.00 0.00 0.00 0.00 0.00 0.00 0.00 0.00 0.00 0.00 0.00 0.00 0.00 0.00 0.00 0.00 0.00 0.00 0.00 0.00 0.00 0.00 0.00 0.00 0.00 0.00 0.00 0.00 0.00 0.00 0.00 0.00 0.00 0.00 0.00 0.00 0.00 0.00 0.00 0.00 0.00 0.00 0.00 0.00 0.00 0.00 0.00 0.00 1.00 2.00 2.00 3.00 1.00 1.00 1.00 1.00 0.00 1.00 1.00 1.00 1.00 2.00 1.00 0.00 1.00 3.00 3.00 2.00 3.00 12.00 35.00 62.00 88.00 94.00 93.00 96.00 81.00 79.00 83.00 106.00 124.00 151.00 188.00 202.00 191.00 181.00 172.00 174.00 168.00 150.00 104.00 99.00 95.00 88.00 74.00 63.00 43.00 32.00 25.00 12.00 9.00 2.00 3.00 1.00 2.00 2.00 2.00 2.00 2.00 1.00 0.00 1.00 1.00 1.00 0.00 0.00 0.00 0.00 0.00 0.00 0.00 0.00 0.00 0.00 0.00 0.00 0.00 0.00 0.00 0.00 0.00 0.00 0.00 0.00 0.00 0.00 0.00 0.00 1.00 1.00 0.00 0.00 0.00 0.00 0.00 0.00 0.00 0.00 0.00 0.00 0.00 0.00 0.00 0.00 0.00 0.00 0.00 0.00 0.00 0.00 0.00 0.00 0.00 0.00 0.00 0.00 0.00 0.00 0.00 0.00 0.00 0.00 0.00 0.00 0.00 0.00 0.00 0.00 0.00 0.00 0.00 0.00 0.00 0.00 0.00 0.00 0.00 0.00 1.00 2.00 3.00 4.00 1.00 2.00 1.00 0.00 1.00 1.00 1.00 1.00 1.00 1.00 1.00 2.00 1.00 2.00 3.00 9.00 20.00 41.00 60.00 72.00 75.00 77.00 91.00 101.00 104.00 142.00 179.00 205.00 209.00 226.00 250.00 277.00 272.00 265.00 263.00 280.00 296.00 285.00 240.00 228.00 203.00 176.00 126.00 116.00 81.00 79.00 61.00 57.00 38.00 42.00 40.00 28.00 20.00 11.00 10.00 7.00 3.00 1.00 0.00 1.00 1.00 0.00 0.00 0.00 0.00 0.00 0.00 0.00 0.00 0.00 0.00 0.00 0.00 0.00 0.00 0.00 0.00 0.00 0.00 0.00 0.00 0.00 0.00 0.00 0.00 1.00 0.00 1.00 0.00 1.00 1.00 1.00 1.00 1.00 1.00 0.00 0.00 0.00 0.00 0.00 0.00 0.00 0.00 0.00 0.00 0.00 0.00 0.00 0.00 0.00 0.00 0.00 0.00 0.00 0.00 0.00 0.00 0.00 0.00 0.00 0.00 0.00 0.00 0.00 0.00 0.00 0.00 0.00 0.00 0.00 0.00 0.00 0.00 0.00 0.00 1.00 1.00 3.00 2.00 3.00 2.00 1.00 1.00 1.00 1.00 1.00 1.00 1.00 1.00 1.00 2.00 4.00 3.00 3.00 4.00 23.00 40.00 62.00 86.00 76.00 66.00 84.00 109.00 115.00 125.00 170.00 205.00 208.00 209.00 206.00 207.00 215.00 218.00 221.00 225.00 226.00 241.00 264.00 282.00 283.00 273.00 250.00 208.00 198.00 157.00 133.00 95.00 95.00 64.00 74.00 81.00 75.00 68.00 51.00 43.00 29.00 21.00 18.00 15.00 9.00 6.00 5.00 4.00 3.00 3.00 1.00 2.00 1.00 0.00 0.00 0.00 0.00 0.00 0.00 0.00 0.00 0.00 0.00 0.00 0.00 0.00 0.00 0.00 0.00 0.00 0.00 0.00 0.00 0.00 0.00 0.00 1.00 1.00 1.00 1.00 0.00 0.00 0.00 0.00 0.00 0.00 0.00 0.00 0.00 0.00 0.00 0.00 0.00 0.00 0.00 0.00 0.00 0.00 0.00 0.00 0.00 0.00 0.00 0.00 0.00 0.00 0.00 0.00 0.00 0.00 0.00 0.00 0.00 0.00 0.00 0.00 0.00 0.00 0.00 0.00 0.00 2.00 4.00 2.00 2.00 2.00 1.00 1.00 1.00 2.00 1.00 1.00 2.00 3.00 3.00 3.00 4.00 4.00 10.00 20.00 45.00 68.00 74.00 93.00 95.00 87.00 100.00 139.00 146.00 134.00 118.00 99.00 85.00 79.00 90.00 102.00 96.00 102.00 124.00 144.00 150.00 159.00 175.00 199.00 210.00 236.00 247.00 250.00 265.00 248.00 247.00 199.00 193.00 123.00 93.00 81.00 72.00 74.00 74.00 71.00 55.00 48.00 41.00 33.00 24.00 16.00 13.00 9.00 7.00 6.00 5.00 5.00 4.00 2.00 0.00 1.00 1.00 1.00 0.00 0.00 0.00 0.00 1.00 0.00 0.00 0.00 0.00 0.00 0.00 0.00 0.00 0.00 0.00 0.00 0.00 0.00 0.00 0.00 0.00 0.00 0.00 0.00 0.00 0.00 0.00 0.00 0.00 0.00 0.00 0.00 0.00 1.00 1.00 0.00 0.00 0.00 1.00 0.00 0.00 0.00 0.00 0.00 0.00 0.00 0.00 0.00 0.00 0.00 0.00 0.00 0.00 0.00 0.00 0.00 0.00 0.00 0.00 0.00 0.00 0.00 0.00 2.00 4.00 2.00 1.00 2.00 1.00 1.00 1.00 2.00 1.00 1.00 2.00 2.00 3.00 3.00 6.00 11.00 32.00 49.00 60.00 69.00 71.00 79.00 101.00 110.00 118.00 116.00 111.00 102.00 76.00 63.00 78.00 87.00 99.00 114.00 124.00 121.00 109.00 91.00 66.00 57.00 68.00 84.00 106.00 143.00 174.00 191.00 216.00 229.00 257.00 242.00 255.00 223.00 197.00 182.00 145.00 110.00 84.00 80.00 78.00 77.00 69.00 56.00 38.00 35.00 27.00 20.00 18.00 13.00 11.00 7.00 6.00 6.00 5.00 4.00 4.00 2.00 1.00 1.00 0.00 0.00 0.00 0.00 0.00 0.00 0.00 1.00 1.00 0.00 1.00 0.00 0.00 0.00 0.00 0.00 0.00 0.00 0.00 0.00 1.00 1.00 1.00 1.00 1.00 1.00 2.00 2.00 2.00 2.00 1.00 1.00 1.00 0.00 0.00 0.00 1.00 0.00 0.00 0.00 0.00 0.00 0.00 0.00 0.00 0.00 0.00 0.00 0.00 0.00 0.00 0.00 0.00 0.00 0.00 0.00 0.00 0.00 0.00 0.00 1.00 1.00 2.00 1.00 1.00 3.00 2.00 1.00 1.00 3.00 3.00 4.00 3.00 2.00 2.00 10.00 16.00 32.00 46.00 57.00 68.00 70.00 76.00 95.00 121.00 118.00 98.00 66.00 56.00 68.00 91.00 120.00 138.00 144.00 163.00 191.00 211.00 221.00 215.00 211.00 212.00 215.00 201.00 186.00 140.00 94.00 61.00 61.00 91.00 130.00 176.00 179.00 203.00 214.00 245.00 251.00 229.00 192.00 173.00 155.00 129.00 112.00 94.00 77.00 54.00 47.00 42.00 30.00 38.00 26.00 22.00 11.00 14.00 11.00 8.00 5.00 5.00 3.00 2.00 1.00 1.00 0.00 1.00 1.00 0.00 0.00 0.00 1.00 1.00 1.00 1.00 0.00 0.00 0.00 0.00 0.00 0.00 0.00 0.00 0.00 1.00 2.00 2.00 1.00 1.00 1.00 1.00 1.00 1.00 1.00 0.00 0.00 0.00 0.00 0.00 0.00 0.00 0.00 0.00 0.00 0.00 0.00 0.00 0.00 0.00 0.00 0.00 0.00 0.00 0.00 0.00 0.00 0.00 0.00 0.00 0.00 0.00 0.00 0.00 0.00 1.00 1.00 1.00 1.00 1.00 4.00 6.00 3.00 2.00 3.00 4.00 5.00 5.00 4.00 8.00 16.00 25.00 41.00 56.00 67.00 77.00 68.00 80.00 102.00 101.00 86.00 74.00 64.00 94.00 131.00 151.00 169.00 182.00 195.00 213.00 233.00 244.00 253.00 258.00 260.00 263.00 270.00 271.00 276.00 269.00 255.00 238.00 221.00 168.00 105.00 57.00 76.00 103.00 130.00 184.00 231.00 258.00 241.00 235.00 226.00 206.00 162.00 124.00 91.00 87.00 69.00 60.00 36.00 42.00 34.00 33.00 19.00 24.00 15.00 9.00 6.00 6.00 4.00 2.00 0.00 0.00 0.00 0.00 0.00 0.00 0.00 0.00 0.00 1.00 0.00 0.00 0.00 0.00 0.00 0.00 0.00 0.00 1.00 0.00 0.00 0.00 0.00 0.00 1.00 1.00 1.00 1.00 1.00 0.00 0.00 0.00 0.00 0.00 0.00 0.00 0.00 0.00 0.00 0.00 0.00 0.00 0.00 0.00 0.00 0.00 0.00 0.00 0.00 0.00 0.00 0.00 0.00 0.00 0.00 0.00 0.00 0.00 0.00 0.00 0.00 2.00 2.00 3.00 1.00 2.00 6.00 8.00 4.00 6.00 8.00 7.00 7.00 9.00 10.00 23.00 29.00 31.00 41.00 56.00 70.00 75.00 68.00 79.00 86.00 74.00 56.00 53.00 69.00 124.00 153.00 183.00 198.00 222.00 238.00 252.00 261.00 264.00 269.00 274.00 279.00 280.00 282.00 287.00 294.00 301.00 300.00 297.00 282.00 266.00 240.00 208.00 164.00 107.00 70.00 88.00 119.00 160.00 185.00 224.00 246.00 246.00 231.00 218.00 172.00 136.00 115.00 90.00 59.00 54.00 57.00 59.00 44.00 43.00 29.00 18.00 13.00 11.00 8.00 5.00 1.00 0.00 0.00 1.00 0.00 0.00 0.00 0.00 0.00 1.00 0.00 0.00 0.00 0.00 1.00 0.00 1.00 1.00 1.00 0.00 0.00 0.00 0.00 0.00 0.00 0.00 0.00 1.00 1.00 0.00 0.00 0.00 0.00 0.00 0.00 0.00 0.00 0.00 0.00 0.00 0.00 0.00 0.00 0.00 0.00 0.00 0.00 0.00 0.00 0.00 0.00 0.00 0.00 0.00 0.00 0.00 0.00 0.00 0.00 0.00 0.00 0.00 1.00 2.00 2.00 2.00 5.00 9.00 4.00 6.00 10.00 14.00 13.00 13.00 18.00 37.00 36.00 35.00 46.00 54.00 53.00 65.00 84.00 90.00 80.00 68.00 51.00 64.00 98.00 144.00 169.00 206.00 224.00 242.00 242.00 234.00 236.00 245.00 258.00 267.00 269.00 277.00 280.00 285.00 288.00 288.00 294.00 298.00 299.00 297.00 286.00 270.00 249.00 232.00 210.00 161.00 119.00 82.00 84.00 108.00 151.00 194.00 219.00 237.00 228.00 213.00 176.00 138.00 101.00 94.00 87.00 78.00 65.00 62.00 47.00 37.00 23.00 25.00 18.00 16.00 7.00 3.00 2.00 3.00 1.00 1.00 1.00 0.00 1.00 1.00 1.00 1.00 1.00 1.00 1.00 1.00 2.00 1.00 1.00 1.00 0.00 0.00 0.00 0.00 0.00 0.00 0.00 0.00 0.00 0.00 0.00 0.00 0.00 0.00 0.00 1.00 0.00 0.00 0.00 0.00 0.00 0.00 0.00 0.00 0.00 0.00 0.00 0.00 0.00 0.00 0.00 0.00 0.00 0.00 0.00 0.00 0.00 0.00 0.00 0.00 0.00 0.00 0.00 1.00 0.00 1.00 8.00 9.00 4.00 4.00 7.00 13.00 17.00 22.00 26.00 43.00 39.00 38.00 43.00 48.00 64.00 80.00 104.00 106.00 86.00 69.00 57.00 73.00 105.00 154.00 188.00 216.00 225.00 229.00 228.00 221.00 224.00 230.00 240.00 250.00 254.00 263.00 270.00 277.00 273.00 272.00 275.00 287.00 295.00 308.00 315.00 324.00 311.00 293.00 273.00 252.00 226.00 192.00 149.00 98.00 72.00 94.00 146.00 180.00 205.00 213.00 205.00 199.00 160.00 149.00 126.00 102.00 62.00 56.00 43.00 39.00 35.00 41.00 39.00 31.00 20.00 15.00 10.00 8.00 3.00 3.00 1.00 1.00 1.00 1.00 1.00 1.00 1.00 1.00 1.00 1.00 2.00 1.00 1.00 1.00 0.00 0.00 0.00 0.00 0.00 0.00 0.00 0.00 0.00 0.00 0.00 0.00 0.00 0.00 0.00 0.00 0.00 0.00 0.00 0.00 0.00 0.00 0.00 0.00 0.00 0.00 0.00 0.00 0.00 0.00 0.00 0.00 1.00 0.00 0.00 0.00 0.00 0.00 0.00 0.00 0.00 1.00 0.00 1.00 1.00 1.00 10.00 4.00 2.00 1.00 4.00 13.00 22.00 32.00 35.00 44.00 40.00 32.00 37.00 53.00 87.00 98.00 108.00 105.00 88.00 76.00 69.00 70.00 97.00 139.00 175.00 198.00 217.00 226.00 229.00 220.00 220.00 223.00 226.00 233.00 241.00 253.00 262.00 265.00 260.00 257.00 257.00 266.00 273.00 279.00 294.00 309.00 318.00 318.00 313.00 301.00 286.00 258.00 213.00 167.00 137.00 98.00 65.00 82.00 127.00 165.00 172.00 206.00 184.00 199.00 172.00 158.00 139.00 114.00 110.00 63.00 69.00 58.00 53.00 47.00 30.00 25.00 23.00 16.00 12.00 10.00 7.00 3.00 2.00 2.00 3.00 2.00 1.00 1.00 1.00 1.00 1.00 1.00 1.00 1.00 0.00 0.00 0.00 0.00 0.00 0.00 0.00 0.00 0.00 0.00 0.00 0.00 0.00 0.00 0.00 0.00 0.00 0.00 0.00 1.00 0.00 0.00 1.00 0.00 0.00 0.00 0.00 0.00 0.00 0.00 0.00 0.00 0.00 0.00 0.00 0.00 0.00 0.00 0.00 0.00 0.00 0.00 0.00 1.00 1.00 1.00 4.00 3.00 1.00 3.00 10.00 15.00 23.00 36.00 35.00 35.00 30.00 37.00 51.00 62.00 87.00 102.00 102.00 90.00 74.00 71.00 77.00 75.00 98.00 115.00 144.00 166.00 183.00 185.00 198.00 194.00 191.00 188.00 190.00 201.00 211.00 225.00 225.00 226.00 233.00 245.00 250.00 261.00 270.00 269.00 277.00 290.00 304.00 314.00 320.00 320.00 322.00 310.00 295.00 268.00 258.00 238.00 179.00 109.00 80.00 77.00 94.00 142.00 162.00 207.00 194.00 191.00 185.00 168.00 165.00 115.00 118.00 99.00 75.00 66.00 48.00 34.00 38.00 19.00 13.00 11.00 10.00 6.00 4.00 2.00 3.00 2.00 1.00 0.00 1.00 1.00 1.00 1.00 1.00 1.00 0.00 0.00 0.00 0.00 0.00 0.00 0.00 0.00 0.00 0.00 0.00 1.00 1.00 1.00 0.00 0.00 0.00 1.00 0.00 0.00 0.00 0.00 0.00 0.00 0.00 0.00 0.00 0.00 0.00 0.00 0.00 0.00 0.00 0.00 0.00 0.00 0.00 0.00 0.00 0.00 0.00 0.00 1.00 2.00 1.00 2.00 2.00 3.00 1.00 6.00 15.00 23.00 29.00 41.00 33.00 25.00 30.00 51.00 76.00 80.00 96.00 106.00 100.00 94.00 90.00 101.00 120.00 147.00 183.00 200.00 205.00 198.00 200.00 195.00 202.00 203.00 201.00 194.00 189.00 194.00 203.00 212.00 214.00 215.00 221.00 235.00 246.00 252.00 256.00 258.00 262.00 275.00 285.00 290.00 301.00 308.00 318.00 317.00 328.00 325.00 311.00 287.00 254.00 227.00 199.00 138.00 78.00 69.00 84.00 122.00 152.00 169.00 192.00 184.00 186.00 159.00 146.00 127.00 102.00 98.00 83.00 53.00 59.00 49.00 35.00 26.00 17.00 14.00 8.00 5.00 4.00 4.00 3.00 1.00 1.00 1.00 1.00 1.00 1.00 1.00 0.00 1.00 1.00 0.00 0.00 0.00 0.00 0.00 0.00 0.00 0.00 1.00 1.00 1.00 1.00 1.00 1.00 1.00 1.00 1.00 0.00 0.00 0.00 0.00 0.00 0.00 0.00 0.00 0.00 0.00 0.00 0.00 0.00 0.00 0.00 0.00 0.00 0.00 0.00 0.00 0.00 0.00 1.00 2.00 2.00 5.00 6.00 10.00 2.00 7.00 17.00 28.00 34.00 39.00 36.00 30.00 44.00 76.00 102.00 105.00 102.00 99.00 93.00 108.00 145.00 174.00 188.00 206.00 214.00 219.00 219.00 223.00 232.00 230.00 225.00 226.00 229.00 229.00 220.00 210.00 213.00 218.00 218.00 218.00 224.00 228.00 228.00 225.00 224.00 234.00 237.00 244.00 259.00 267.00 281.00 286.00 293.00 298.00 310.00 318.00 315.00 303.00 284.00 267.00 242.00 210.00 179.00 139.00 87.00 75.00 100.00 122.00 151.00 168.00 175.00 181.00 177.00 161.00 128.00 123.00 107.00 73.00 74.00 68.00 54.00 43.00 29.00 20.00 12.00 7.00 8.00 7.00 4.00 2.00 2.00 2.00 1.00 0.00 0.00 1.00 0.00 1.00 1.00 1.00 1.00 2.00 2.00 1.00 1.00 1.00 1.00 1.00 0.00 1.00 1.00 1.00 1.00 1.00 1.00 1.00 1.00 0.00 0.00 0.00 0.00 0.00 0.00 0.00 0.00 0.00 0.00 0.00 0.00 0.00 0.00 0.00 0.00 0.00 0.00 0.00 0.00 1.00 1.00 2.00 2.00 5.00 7.00 12.00 3.00 9.00 15.00 26.00 30.00 35.00 37.00 31.00 54.00 90.00 98.00 103.00 95.00 80.00 80.00 96.00 139.00 174.00 186.00 191.00 198.00 210.00 214.00 212.00 213.00 216.00 223.00 228.00 233.00 235.00 233.00 225.00 226.00 229.00 225.00 223.00 227.00 226.00 227.00 230.00 233.00 242.00 247.00 249.00 258.00 259.00 270.00 268.00 276.00 284.00 299.00 303.00 303.00 303.00 303.00 293.00 280.00 268.00 234.00 195.00 135.00 78.00 75.00 82.00 100.00 124.00 148.00 175.00 172.00 179.00 162.00 161.00 135.00 96.00 78.00 76.00 57.00 52.00 32.00 24.00 13.00 8.00 7.00 8.00 3.00 2.00 2.00 1.00 1.00 0.00 0.00 0.00 0.00 0.00 0.00 0.00 0.00 1.00 1.00 1.00 1.00 1.00 1.00 1.00 1.00 1.00 0.00 0.00 1.00 0.00 0.00 0.00 1.00 0.00 0.00 0.00 0.00 0.00 0.00 0.00 0.00 0.00 0.00 0.00 0.00 0.00 0.00 0.00 0.00 0.00 0.00 0.00 0.00 0.00 1.00 4.00 2.00 3.00 3.00 8.00 5.00 9.00 10.00 19.00 33.00 38.00 32.00 41.00 64.00 96.00 93.00 95.00 88.00 74.00 77.00 96.00 136.00 175.00 194.00 200.00 205.00 208.00 215.00 214.00 215.00 218.00 220.00 227.00 236.00 238.00 237.00 231.00 231.00 237.00 236.00 235.00 238.00 240.00 240.00 240.00 245.00 252.00 253.00 253.00 260.00 260.00 267.00 258.00 265.00 272.00 292.00 294.00 294.00 301.00 309.00 306.00 303.00 290.00 262.00 227.00 186.00 141.00 104.00 74.00 75.00 85.00 109.00 135.00 142.00 174.00 161.00 162.00 138.00 110.00 90.00 97.00 65.00 66.00 37.00 30.00 21.00 16.00 10.00 10.00 6.00 3.00 1.00 0.00 0.00 1.00 0.00 0.00 0.00 0.00 0.00 0.00 0.00 0.00 1.00 1.00 1.00 1.00 1.00 1.00 1.00 1.00 1.00 0.00 1.00 0.00 0.00 0.00 0.00 0.00 0.00 0.00 0.00 0.00 0.00 0.00 0.00 0.00 0.00 0.00 0.00 0.00 0.00 0.00 0.00 0.00 0.00 0.00 0.00 1.00 0.00 3.00 2.00 1.00 4.00 4.00 5.00 7.00 8.00 20.00 37.00 43.00 28.00 44.00 74.00 95.00 98.00 94.00 94.00 87.00 86.00 102.00 136.00 171.00 191.00 195.00 200.00 203.00 206.00 211.00 211.00 214.00 212.00 215.00 222.00 227.00 227.00 229.00 229.00 233.00 236.00 237.00 242.00 247.00 245.00 245.00 249.00 249.00 248.00 250.00 260.00 263.00 271.00 260.00 258.00 257.00 267.00 270.00 282.00 293.00 294.00 288.00 282.00 275.00 256.00 241.00 223.00 180.00 143.00 101.00 84.00 70.00 76.00 94.00 112.00 152.00 153.00 150.00 138.00 132.00 122.00 126.00 89.00 77.00 50.00 43.00 37.00 33.00 22.00 17.00 15.00 15.00 5.00 2.00 1.00 1.00 0.00 0.00 1.00 1.00 2.00 1.00 1.00 1.00 2.00 2.00 2.00 2.00 1.00 1.00 1.00 1.00 1.00 0.00 1.00 0.00 0.00 0.00 0.00 0.00 0.00 0.00 0.00 0.00 0.00 0.00 0.00 0.00 0.00 0.00 0.00 0.00 0.00 0.00 0.00 0.00 0.00 0.00 0.00 2.00 1.00 2.00 2.00 1.00 4.00 4.00 4.00 8.00 11.00 23.00 33.00 35.00 27.00 39.00 65.00 85.00 98.00 102.00 100.00 90.00 84.00 88.00 110.00 140.00 166.00 177.00 186.00 197.00 200.00 205.00 201.00 208.00 208.00 211.00 217.00 220.00 221.00 227.00 229.00 232.00 237.00 237.00 236.00 238.00 240.00 247.00 249.00 250.00 251.00 253.00 260.00 265.00 270.00 266.00 268.00 260.00 266.00 274.00 275.00 283.00 278.00 269.00 241.00 229.00 225.00 222.00 221.00 206.00 174.00 143.00 116.00 87.00 77.00 77.00 92.00 130.00 134.00 139.00 138.00 140.00 140.00 138.00 110.00 87.00 57.00 51.00 45.00 42.00 36.00 30.00 20.00 22.00 15.00 10.00 6.00 2.00 1.00 0.00 0.00 1.00 3.00 3.00 3.00 3.00 2.00 2.00 1.00 2.00 1.00 1.00 1.00 1.00 1.00 1.00 1.00 1.00 1.00 1.00 1.00 0.00 0.00 0.00 0.00 0.00 0.00 0.00 0.00 0.00 0.00 0.00 0.00 0.00 0.00 0.00 0.00 0.00 0.00 0.00 0.00 1.00 2.00 2.00 2.00 4.00 6.00 9.00 5.00 6.00 9.00 14.00 24.00 30.00 28.00 35.00 52.00 77.00 89.00 97.00 96.00 79.00 67.00 62.00 72.00 94.00 124.00 150.00 172.00 192.00 203.00 204.00 199.00 207.00 212.00 219.00 225.00 225.00 223.00 228.00 231.00 231.00 238.00 238.00 232.00 224.00 224.00 238.00 240.00 247.00 255.00 259.00 264.00 265.00 261.00 264.00 273.00 274.00 274.00 291.00 284.00 289.00 285.00 281.00 252.00 233.00 208.00 206.00 177.00 165.00 139.00 132.00 109.00 81.00 71.00 75.00 88.00 106.00 119.00 138.00 142.00 148.00 141.00 133.00 124.00 105.00 68.00 56.00 48.00 42.00 39.00 30.00 25.00 22.00 21.00 13.00 9.00 5.00 2.00 1.00 0.00 1.00 2.00 3.00 3.00 3.00 2.00 2.00 1.00 1.00 0.00 1.00 1.00 1.00 1.00 0.00 0.00 1.00 1.00 1.00 1.00 0.00 0.00 0.00 0.00 0.00 0.00 0.00 0.00 0.00 0.00 0.00 0.00 1.00 0.00 0.00 0.00 0.00 0.00 0.00 0.00 2.00 2.00 2.00 3.00 6.00 8.00 9.00 6.00 4.00 4.00 5.00 21.00 37.00 36.00 29.00 38.00 58.00 71.00 89.00 95.00 80.00 71.00 64.00 58.00 60.00 71.00 106.00 132.00 158.00 181.00 189.00 197.00 210.00 213.00 213.00 213.00 210.00 208.00 219.00 229.00 224.00 226.00 231.00 230.00 224.00 218.00 230.00 235.00 243.00 255.00 259.00 260.00 261.00 252.00 259.00 269.00 275.00 275.00 292.00 285.00 281.00 2