# vtk DataFile Version 2.0
VTK from Matlab
ASCII
DATASET STRUCTURED_POINTS
DIMENSIONS 140 68 44
SPACING 1 1 1
ORIGIN 0 0 0
POINT_DATA 418880
SCALARS mag float 1
LOOKUP_TABLE default
0.00 0.00 0.00 0.00 0.00 0.00 0.00 0.00 0.00 0.00 1.00 0.00 0.00 0.00 0.00 0.00 0.00 0.00 0.00 0.00 0.00 0.00 0.00 0.00 0.00 0.00 0.00 0.00 0.00 0.00 0.00 0.00 0.00 0.00 0.00 0.00 0.00 0.00 0.00 0.00 0.00 0.00 0.00 0.00 0.00 0.00 0.00 0.00 0.00 0.00 0.00 0.00 0.00 0.00 0.00 0.00 0.00 0.00 0.00 0.00 0.00 0.00 0.00 0.00 0.00 0.00 0.00 0.00 0.00 0.00 0.00 0.00 0.00 0.00 0.00 0.00 0.00 0.00 0.00 0.00 0.00 0.00 0.00 0.00 0.00 0.00 0.00 0.00 0.00 0.00 0.00 0.00 0.00 0.00 0.00 0.00 0.00 0.00 0.00 0.00 0.00 0.00 0.00 0.00 0.00 0.00 0.00 0.00 0.00 0.00 0.00 0.00 0.00 0.00 0.00 0.00 0.00 0.00 0.00 0.00 0.00 0.00 0.00 0.00 0.00 0.00 0.00 0.00 0.00 0.00 0.00 0.00 0.00 0.00 0.00 0.00 0.00 0.00 0.00 0.00 0.00 0.00 0.00 0.00 0.00 0.00 0.00 0.00 0.00 0.00 1.00 0.00 0.00 0.00 0.00 0.00 0.00 0.00 0.00 0.00 0.00 0.00 0.00 0.00 0.00 0.00 0.00 0.00 0.00 0.00 0.00 0.00 0.00 0.00 0.00 0.00 0.00 0.00 0.00 0.00 0.00 0.00 0.00 0.00 0.00 0.00 0.00 0.00 0.00 0.00 0.00 0.00 0.00 0.00 0.00 0.00 0.00 0.00 0.00 0.00 0.00 0.00 0.00 0.00 0.00 0.00 0.00 0.00 0.00 0.00 0.00 0.00 0.00 0.00 0.00 0.00 0.00 0.00 0.00 0.00 0.00 0.00 0.00 0.00 0.00 0.00 0.00 0.00 0.00 0.00 0.00 0.00 0.00 0.00 0.00 0.00 0.00 0.00 0.00 0.00 0.00 0.00 0.00 0.00 0.00 0.00 0.00 0.00 0.00 0.00 0.00 0.00 0.00 0.00 0.00 0.00 0.00 0.00 0.00 0.00 0.00 0.00 0.00 0.00 0.00 0.00 0.00 0.00 0.00 0.00 0.00 0.00 0.00 0.00 0.00 0.00 0.00 0.00 0.00 0.00 0.00 0.00 0.00 0.00 0.00 0.00 0.00 0.00 0.00 1.00 1.00 0.00 0.00 0.00 0.00 0.00 0.00 0.00 0.00 0.00 0.00 0.00 0.00 0.00 0.00 0.00 0.00 0.00 0.00 0.00 0.00 0.00 0.00 0.00 0.00 0.00 0.00 0.00 0.00 0.00 0.00 0.00 0.00 0.00 0.00 0.00 0.00 0.00 0.00 0.00 0.00 0.00 0.00 0.00 0.00 0.00 0.00 0.00 0.00 0.00 0.00 0.00 0.00 0.00 0.00 0.00 0.00 0.00 0.00 0.00 0.00 0.00 0.00 0.00 0.00 0.00 0.00 0.00 0.00 0.00 0.00 0.00 0.00 0.00 0.00 0.00 0.00 0.00 0.00 0.00 0.00 0.00 0.00 0.00 0.00 0.00 0.00 0.00 0.00 0.00 0.00 0.00 0.00 0.00 0.00 0.00 0.00 0.00 0.00 0.00 0.00 0.00 0.00 0.00 0.00 0.00 0.00 0.00 0.00 0.00 0.00 0.00 0.00 0.00 0.00 0.00 0.00 0.00 0.00 0.00 0.00 0.00 0.00 0.00 0.00 0.00 0.00 0.00 0.00 0.00 0.00 0.00 0.00 0.00 0.00 0.00 0.00 0.00 0.00 1.00 0.00 0.00 0.00 0.00 0.00 0.00 0.00 0.00 0.00 0.00 0.00 0.00 0.00 0.00 0.00 0.00 0.00 0.00 0.00 0.00 0.00 0.00 0.00 0.00 0.00 0.00 0.00 0.00 0.00 0.00 0.00 0.00 0.00 0.00 0.00 0.00 0.00 0.00 0.00 0.00 0.00 0.00 0.00 0.00 0.00 0.00 0.00 0.00 0.00 0.00 0.00 0.00 0.00 0.00 0.00 0.00 0.00 0.00 0.00 0.00 0.00 0.00 0.00 0.00 0.00 0.00 0.00 0.00 0.00 0.00 0.00 0.00 0.00 0.00 0.00 0.00 0.00 0.00 0.00 0.00 0.00 0.00 0.00 0.00 0.00 0.00 0.00 0.00 0.00 0.00 0.00 0.00 0.00 0.00 0.00 0.00 0.00 0.00 0.00 0.00 0.00 0.00 0.00 0.00 0.00 0.00 0.00 0.00 0.00 0.00 0.00 0.00 0.00 0.00 0.00 0.00 0.00 0.00 0.00 0.00 0.00 0.00 0.00 0.00 0.00 0.00 0.00 0.00 0.00 0.00 0.00 0.00 0.00 0.00 0.00 0.00 0.00 0.00 0.00 1.00 1.00 0.00 0.00 0.00 0.00 0.00 0.00 0.00 0.00 0.00 0.00 0.00 0.00 0.00 0.00 0.00 0.00 0.00 0.00 0.00 0.00 0.00 0.00 0.00 0.00 0.00 0.00 0.00 0.00 0.00 0.00 0.00 0.00 0.00 0.00 0.00 0.00 0.00 0.00 0.00 0.00 0.00 0.00 0.00 0.00 0.00 0.00 0.00 0.00 0.00 0.00 0.00 0.00 0.00 0.00 0.00 0.00 0.00 0.00 0.00 0.00 0.00 0.00 0.00 0.00 0.00 0.00 0.00 0.00 0.00 0.00 0.00 0.00 0.00 0.00 0.00 0.00 0.00 0.00 0.00 0.00 0.00 0.00 0.00 0.00 0.00 0.00 0.00 0.00 0.00 0.00 0.00 0.00 0.00 0.00 0.00 0.00 0.00 0.00 0.00 0.00 0.00 0.00 0.00 0.00 0.00 0.00 0.00 0.00 0.00 0.00 0.00 0.00 0.00 0.00 0.00 0.00 0.00 0.00 0.00 0.00 0.00 0.00 0.00 0.00 0.00 0.00 0.00 0.00 0.00 0.00 0.00 0.00 0.00 0.00 0.00 0.00 0.00 0.00 0.00 1.00 0.00 0.00 0.00 0.00 0.00 1.00 0.00 0.00 0.00 0.00 0.00 0.00 0.00 0.00 0.00 0.00 0.00 0.00 0.00 0.00 0.00 0.00 0.00 0.00 0.00 0.00 0.00 0.00 0.00 0.00 0.00 0.00 0.00 0.00 0.00 0.00 0.00 0.00 0.00 0.00 0.00 0.00 0.00 0.00 0.00 0.00 0.00 0.00 0.00 0.00 0.00 0.00 0.00 0.00 0.00 0.00 0.00 0.00 0.00 0.00 0.00 0.00 0.00 0.00 0.00 0.00 0.00 0.00 0.00 0.00 0.00 0.00 0.00 0.00 0.00 0.00 0.00 0.00 0.00 0.00 0.00 0.00 0.00 0.00 0.00 0.00 0.00 0.00 0.00 0.00 0.00 0.00 0.00 0.00 0.00 0.00 0.00 0.00 0.00 0.00 0.00 0.00 0.00 0.00 0.00 0.00 0.00 0.00 0.00 0.00 0.00 0.00 0.00 0.00 0.00 0.00 0.00 0.00 0.00 0.00 0.00 0.00 0.00 0.00 0.00 0.00 0.00 0.00 0.00 0.00 0.00 0.00 0.00 0.00 1.00 1.00 0.00 0.00 0.00 0.00 0.00 0.00 0.00 0.00 0.00 0.00 0.00 0.00 0.00 0.00 0.00 0.00 0.00 0.00 0.00 0.00 0.00 0.00 0.00 0.00 0.00 0.00 0.00 0.00 0.00 0.00 0.00 0.00 0.00 0.00 0.00 0.00 0.00 0.00 0.00 0.00 0.00 0.00 0.00 0.00 0.00 0.00 0.00 0.00 0.00 0.00 0.00 0.00 0.00 0.00 0.00 0.00 0.00 0.00 0.00 0.00 0.00 0.00 0.00 0.00 0.00 0.00 0.00 0.00 0.00 0.00 0.00 0.00 0.00 0.00 0.00 0.00 0.00 0.00 0.00 0.00 0.00 0.00 0.00 0.00 0.00 0.00 0.00 0.00 0.00 0.00 0.00 0.00 0.00 0.00 0.00 0.00 0.00 0.00 0.00 0.00 0.00 0.00 0.00 0.00 0.00 0.00 0.00 0.00 0.00 0.00 0.00 0.00 0.00 0.00 0.00 0.00 0.00 0.00 0.00 0.00 0.00 0.00 0.00 0.00 0.00 0.00 0.00 0.00 0.00 0.00 0.00 0.00 0.00 0.00 0.00 0.00 0.00 0.00 0.00 1.00 0.00 0.00 0.00 0.00 0.00 0.00 0.00 0.00 0.00 0.00 0.00 0.00 0.00 0.00 0.00 0.00 0.00 0.00 0.00 0.00 0.00 1.00 1.00 0.00 0.00 0.00 0.00 0.00 0.00 0.00 0.00 0.00 0.00 0.00 0.00 0.00 0.00 0.00 0.00 0.00 0.00 0.00 0.00 0.00 0.00 0.00 0.00 0.00 0.00 0.00 0.00 0.00 0.00 0.00 0.00 0.00 0.00 0.00 0.00 0.00 0.00 0.00 0.00 0.00 0.00 0.00 0.00 0.00 0.00 0.00 0.00 0.00 0.00 0.00 0.00 0.00 0.00 0.00 0.00 0.00 0.00 0.00 0.00 0.00 0.00 0.00 0.00 0.00 0.00 0.00 0.00 0.00 0.00 0.00 0.00 0.00 0.00 0.00 0.00 0.00 0.00 0.00 0.00 0.00 0.00 0.00 0.00 0.00 0.00 0.00 0.00 0.00 0.00 0.00 0.00 0.00 0.00 0.00 0.00 0.00 0.00 0.00 0.00 0.00 0.00 0.00 0.00 0.00 0.00 0.00 0.00 0.00 0.00 0.00 0.00 0.00 0.00 0.00 0.00 0.00 0.00 0.00 0.00 0.00 0.00 0.00 0.00 0.00 0.00 0.00 0.00 0.00 0.00 0.00 0.00 0.00 0.00 0.00 0.00 0.00 0.00 1.00 1.00 1.00 0.00 0.00 0.00 0.00 0.00 0.00 0.00 0.00 0.00 0.00 0.00 0.00 0.00 0.00 0.00 0.00 0.00 0.00 0.00 0.00 0.00 0.00 0.00 0.00 0.00 0.00 0.00 0.00 0.00 0.00 0.00 0.00 0.00 0.00 0.00 0.00 0.00 0.00 0.00 0.00 0.00 0.00 0.00 0.00 0.00 0.00 0.00 0.00 0.00 0.00 0.00 0.00 0.00 0.00 0.00 0.00 0.00 0.00 0.00 0.00 0.00 0.00 0.00 0.00 0.00 0.00 0.00 0.00 0.00 0.00 0.00 0.00 0.00 0.00 0.00 0.00 0.00 0.00 0.00 0.00 0.00 0.00 0.00 0.00 0.00 0.00 0.00 0.00 0.00 0.00 0.00 0.00 0.00 0.00 0.00 0.00 0.00 0.00 0.00 0.00 0.00 0.00 0.00 0.00 0.00 0.00 0.00 0.00 0.00 0.00 0.00 0.00 0.00 0.00 0.00 1.00 0.00 0.00 0.00 0.00 0.00 0.00 1.00 1.00 0.00 0.00 0.00 0.00 0.00 0.00 0.00 0.00 0.00 0.00 0.00 0.00 0.00 1.00 1.00 1.00 0.00 0.00 0.00 0.00 0.00 0.00 0.00 0.00 0.00 0.00 0.00 0.00 0.00 0.00 0.00 0.00 0.00 0.00 0.00 0.00 0.00 0.00 0.00 0.00 0.00 0.00 0.00 0.00 0.00 0.00 0.00 0.00 0.00 0.00 0.00 0.00 0.00 0.00 0.00 0.00 0.00 0.00 0.00 0.00 0.00 0.00 0.00 0.00 0.00 0.00 0.00 0.00 0.00 0.00 0.00 0.00 0.00 0.00 0.00 0.00 0.00 0.00 0.00 0.00 0.00 0.00 0.00 0.00 0.00 0.00 0.00 0.00 0.00 0.00 0.00 0.00 0.00 0.00 0.00 0.00 0.00 0.00 0.00 0.00 0.00 0.00 0.00 0.00 0.00 0.00 0.00 0.00 0.00 0.00 0.00 0.00 0.00 0.00 0.00 0.00 0.00 0.00 0.00 0.00 0.00 0.00 0.00 0.00 0.00 0.00 0.00 0.00 0.00 0.00 1.00 1.00 0.00 0.00 1.00 1.00 0.00 0.00 1.00 0.00 0.00 0.00 0.00 0.00 0.00 0.00 0.00 0.00 0.00 0.00 0.00 0.00 0.00 1.00 0.00 0.00 0.00 0.00 1.00 0.00 0.00 0.00 1.00 0.00 1.00 1.00 1.00 1.00 1.00 0.00 0.00 0.00 0.00 0.00 0.00 0.00 1.00 0.00 0.00 0.00 0.00 0.00 0.00 0.00 0.00 0.00 0.00 0.00 0.00 0.00 0.00 0.00 0.00 0.00 0.00 0.00 0.00 0.00 0.00 0.00 0.00 0.00 0.00 0.00 0.00 0.00 0.00 0.00 0.00 0.00 0.00 0.00 0.00 0.00 0.00 0.00 0.00 0.00 0.00 0.00 0.00 0.00 0.00 0.00 0.00 0.00 0.00 0.00 0.00 0.00 0.00 0.00 0.00 0.00 0.00 0.00 0.00 0.00 0.00 0.00 0.00 0.00 0.00 0.00 0.00 0.00 0.00 0.00 0.00 0.00 0.00 0.00 0.00 0.00 0.00 0.00 0.00 0.00 0.00 0.00 0.00 0.00 0.00 0.00 0.00 0.00 0.00 0.00 0.00 0.00 1.00 1.00 0.00 0.00 0.00 1.00 0.00 0.00 0.00 0.00 0.00 0.00 0.00 0.00 0.00 0.00 0.00 0.00 0.00 0.00 0.00 1.00 0.00 0.00 1.00 1.00 0.00 1.00 1.00 0.00 0.00 0.00 0.00 1.00 1.00 1.00 1.00 1.00 1.00 0.00 0.00 0.00 0.00 0.00 0.00 0.00 1.00 0.00 0.00 0.00 0.00 0.00 0.00 0.00 0.00 0.00 0.00 0.00 0.00 0.00 0.00 0.00 0.00 0.00 0.00 0.00 0.00 0.00 0.00 0.00 0.00 0.00 0.00 0.00 0.00 0.00 0.00 0.00 0.00 0.00 0.00 0.00 0.00 0.00 0.00 0.00 0.00 0.00 0.00 0.00 0.00 0.00 0.00 0.00 0.00 0.00 0.00 0.00 0.00 0.00 0.00 0.00 0.00 0.00 0.00 0.00 0.00 0.00 0.00 0.00 0.00 0.00 0.00 0.00 0.00 0.00 0.00 0.00 0.00 0.00 0.00 0.00 0.00 0.00 0.00 0.00 0.00 0.00 0.00 0.00 0.00 0.00 0.00 0.00 0.00 0.00 0.00 0.00 0.00 0.00 1.00 1.00 0.00 0.00 0.00 0.00 0.00 0.00 0.00 0.00 0.00 1.00 0.00 0.00 0.00 0.00 0.00 1.00 1.00 0.00 0.00 1.00 1.00 0.00 1.00 1.00 1.00 1.00 1.00 0.00 0.00 0.00 0.00 1.00 1.00 0.00 0.00 0.00 0.00 0.00 0.00 0.00 0.00 0.00 0.00 0.00 0.00 0.00 0.00 0.00 0.00 0.00 0.00 0.00 0.00 0.00 0.00 0.00 0.00 0.00 0.00 0.00 0.00 0.00 0.00 0.00 0.00 0.00 0.00 0.00 0.00 0.00 0.00 0.00 0.00 0.00 0.00 0.00 0.00 0.00 0.00 0.00 0.00 0.00 0.00 0.00 0.00 0.00 0.00 0.00 0.00 0.00 0.00 0.00 0.00 0.00 0.00 0.00 0.00 0.00 0.00 0.00 0.00 0.00 0.00 0.00 0.00 0.00 0.00 0.00 0.00 0.00 0.00 0.00 0.00 0.00 0.00 0.00 0.00 0.00 0.00 0.00 0.00 0.00 0.00 0.00 0.00 0.00 0.00 0.00 0.00 0.00 0.00 0.00 0.00 0.00 0.00 0.00 0.00 0.00 0.00 1.00 0.00 1.00 1.00 0.00 0.00 0.00 0.00 0.00 0.00 0.00 0.00 0.00 0.00 0.00 1.00 1.00 0.00 0.00 0.00 1.00 1.00 1.00 1.00 2.00 1.00 1.00 1.00 1.00 0.00 0.00 0.00 1.00 1.00 0.00 0.00 0.00 0.00 0.00 0.00 0.00 0.00 0.00 0.00 0.00 0.00 0.00 0.00 0.00 0.00 0.00 0.00 0.00 0.00 0.00 0.00 0.00 0.00 0.00 0.00 0.00 0.00 0.00 0.00 0.00 0.00 0.00 0.00 0.00 0.00 0.00 0.00 0.00 0.00 0.00 0.00 0.00 0.00 0.00 0.00 0.00 0.00 0.00 0.00 0.00 0.00 0.00 0.00 0.00 0.00 0.00 0.00 0.00 0.00 0.00 0.00 0.00 0.00 0.00 0.00 0.00 0.00 0.00 0.00 0.00 0.00 0.00 0.00 0.00 0.00 0.00 0.00 0.00 0.00 0.00 0.00 0.00 0.00 0.00 0.00 0.00 0.00 0.00 0.00 0.00 0.00 0.00 0.00 0.00 0.00 0.00 0.00 0.00 0.00 0.00 0.00 0.00 0.00 0.00 0.00 1.00 0.00 2.00 1.00 0.00 0.00 0.00 0.00 0.00 0.00 0.00 0.00 1.00 0.00 0.00 1.00 1.00 1.00 0.00 1.00 1.00 1.00 1.00 2.00 2.00 1.00 1.00 0.00 0.00 0.00 0.00 0.00 0.00 1.00 1.00 2.00 2.00 2.00 2.00 1.00 2.00 2.00 2.00 1.00 0.00 0.00 0.00 0.00 0.00 0.00 0.00 0.00 0.00 0.00 0.00 0.00 0.00 0.00 0.00 0.00 0.00 0.00 0.00 0.00 0.00 0.00 0.00 0.00 0.00 0.00 0.00 0.00 0.00 0.00 0.00 0.00 0.00 0.00 0.00 0.00 0.00 0.00 0.00 0.00 0.00 0.00 0.00 0.00 0.00 0.00 0.00 0.00 0.00 0.00 0.00 0.00 0.00 0.00 0.00 0.00 0.00 0.00 0.00 0.00 0.00 0.00 0.00 0.00 0.00 0.00 0.00 0.00 0.00 0.00 0.00 0.00 0.00 0.00 0.00 0.00 0.00 0.00 0.00 0.00 0.00 0.00 0.00 0.00 0.00 0.00 0.00 0.00 0.00 0.00 0.00 0.00 0.00 0.00 0.00 0.00 1.00 1.00 1.00 2.00 0.00 0.00 0.00 0.00 0.00 1.00 1.00 0.00 2.00 1.00 0.00 1.00 1.00 1.00 1.00 1.00 2.00 2.00 1.00 1.00 1.00 2.00 2.00 2.00 2.00 2.00 1.00 1.00 1.00 1.00 0.00 1.00 1.00 2.00 2.00 2.00 4.00 4.00 4.00 2.00 0.00 1.00 1.00 0.00 0.00 0.00 0.00 0.00 0.00 0.00 0.00 0.00 0.00 0.00 0.00 0.00 0.00 0.00 0.00 0.00 0.00 0.00 0.00 0.00 0.00 0.00 0.00 0.00 0.00 0.00 0.00 0.00 0.00 1.00 0.00 0.00 0.00 0.00 0.00 0.00 0.00 0.00 0.00 0.00 0.00 0.00 0.00 0.00 0.00 0.00 0.00 0.00 0.00 0.00 0.00 0.00 0.00 0.00 0.00 0.00 0.00 0.00 0.00 0.00 0.00 0.00 0.00 0.00 0.00 0.00 0.00 0.00 0.00 0.00 0.00 0.00 0.00 0.00 0.00 0.00 0.00 0.00 0.00 0.00 0.00 0.00 0.00 0.00 0.00 0.00 0.00 0.00 0.00 0.00 0.00 0.00 1.00 1.00 1.00 2.00 0.00 0.00 0.00 0.00 0.00 0.00 1.00 0.00 2.00 1.00 0.00 1.00 1.00 2.00 2.00 2.00 3.00 3.00 3.00 2.00 2.00 4.00 6.00 7.00 5.00 4.00 3.00 3.00 2.00 2.00 3.00 4.00 7.00 8.00 5.00 4.00 3.00 3.00 2.00 2.00 0.00 1.00 1.00 1.00 0.00 0.00 0.00 0.00 0.00 0.00 0.00 0.00 0.00 0.00 0.00 0.00 0.00 0.00 0.00 0.00 0.00 0.00 0.00 0.00 0.00 0.00 0.00 0.00 0.00 0.00 0.00 0.00 0.00 0.00 0.00 0.00 0.00 0.00 0.00 0.00 0.00 0.00 0.00 0.00 0.00 0.00 0.00 0.00 0.00 0.00 0.00 0.00 0.00 0.00 0.00 0.00 0.00 0.00 0.00 0.00 0.00 0.00 0.00 0.00 0.00 0.00 0.00 0.00 0.00 0.00 0.00 0.00 0.00 0.00 0.00 0.00 0.00 0.00 0.00 0.00 0.00 0.00 0.00 0.00 0.00 0.00 0.00 0.00 0.00 0.00 0.00 0.00 0.00 0.00 0.00 0.00 1.00 1.00 1.00 1.00 0.00 0.00 0.00 1.00 0.00 0.00 1.00 1.00 1.00 1.00 0.00 1.00 1.00 2.00 3.00 2.00 2.00 2.00 3.00 3.00 2.00 4.00 5.00 7.00 3.00 4.00 3.00 4.00 2.00 1.00 2.00 7.00 13.00 19.00 19.00 19.00 17.00 16.00 11.00 9.00 4.00 5.00 5.00 4.00 0.00 0.00 0.00 0.00 0.00 0.00 0.00 0.00 0.00 0.00 0.00 0.00 0.00 0.00 0.00 0.00 0.00 0.00 0.00 0.00 0.00 0.00 0.00 0.00 0.00 0.00 0.00 0.00 0.00 0.00 0.00 0.00 0.00 0.00 0.00 0.00 0.00 0.00 0.00 0.00 0.00 0.00 0.00 0.00 0.00 0.00 0.00 0.00 0.00 0.00 0.00 0.00 0.00 0.00 0.00 0.00 0.00 0.00 0.00 0.00 0.00 0.00 0.00 0.00 0.00 0.00 0.00 0.00 0.00 0.00 0.00 0.00 0.00 0.00 0.00 0.00 0.00 0.00 0.00 0.00 0.00 0.00 0.00 0.00 0.00 0.00 0.00 0.00 0.00 0.00 0.00 1.00 1.00 1.00 1.00 1.00 1.00 1.00 0.00 1.00 1.00 0.00 1.00 1.00 1.00 1.00 1.00 1.00 2.00 2.00 1.00 1.00 2.00 1.00 1.00 3.00 2.00 1.00 5.00 4.00 4.00 2.00 3.00 9.00 27.00 40.00 31.00 20.00 10.00 7.00 8.00 15.00 19.00 21.00 16.00 13.00 8.00 11.00 10.00 9.00 4.00 0.00 1.00 1.00 0.00 0.00 0.00 0.00 0.00 0.00 0.00 0.00 0.00 0.00 0.00 0.00 0.00 0.00 0.00 0.00 0.00 0.00 0.00 0.00 0.00 0.00 0.00 0.00 0.00 0.00 0.00 0.00 0.00 0.00 0.00 0.00 0.00 0.00 0.00 0.00 0.00 0.00 0.00 0.00 0.00 0.00 0.00 0.00 0.00 0.00 0.00 0.00 0.00 0.00 0.00 0.00 0.00 0.00 0.00 0.00 0.00 0.00 0.00 0.00 0.00 0.00 0.00 0.00 0.00 0.00 0.00 0.00 0.00 0.00 0.00 0.00 0.00 0.00 0.00 0.00 0.00 0.00 0.00 0.00 0.00 0.00 0.00 0.00 0.00 0.00 0.00 1.00 0.00 2.00 2.00 0.00 1.00 1.00 1.00 1.00 1.00 0.00 1.00 0.00 0.00 1.00 1.00 1.00 1.00 1.00 1.00 2.00 2.00 1.00 1.00 2.00 2.00 7.00 17.00 32.00 46.00 50.00 63.00 70.00 84.00 84.00 74.00 81.00 84.00 81.00 67.00 61.00 53.00 49.00 32.00 17.00 9.00 9.00 9.00 8.00 7.00 7.00 10.00 7.00 4.00 2.00 1.00 1.00 0.00 0.00 1.00 0.00 0.00 0.00 0.00 0.00 0.00 0.00 0.00 0.00 0.00 0.00 0.00 0.00 0.00 0.00 0.00 0.00 0.00 0.00 0.00 0.00 0.00 0.00 0.00 0.00 0.00 0.00 0.00 0.00 0.00 0.00 0.00 0.00 0.00 0.00 0.00 0.00 0.00 0.00 0.00 0.00 0.00 0.00 0.00 0.00 0.00 0.00 0.00 0.00 0.00 0.00 0.00 0.00 0.00 0.00 0.00 0.00 0.00 0.00 0.00 0.00 0.00 0.00 0.00 0.00 0.00 0.00 0.00 0.00 0.00 0.00 0.00 0.00 0.00 0.00 0.00 0.00 0.00 0.00 0.00 1.00 0.00 2.00 2.00 2.00 1.00 1.00 1.00 0.00 1.00 0.00 0.00 1.00 1.00 1.00 0.00 0.00 1.00 2.00 3.00 6.00 3.00 0.00 2.00 12.00 35.00 58.00 65.00 78.00 78.00 93.00 101.00 87.00 75.00 82.00 95.00 107.00 113.00 124.00 119.00 107.00 102.00 106.00 97.00 72.00 53.00 37.00 15.00 8.00 6.00 8.00 11.00 9.00 10.00 7.00 6.00 4.00 2.00 2.00 3.00 1.00 0.00 0.00 0.00 0.00 0.00 0.00 0.00 0.00 0.00 0.00 0.00 0.00 0.00 0.00 0.00 0.00 0.00 0.00 0.00 0.00 0.00 0.00 0.00 0.00 0.00 0.00 0.00 0.00 0.00 0.00 0.00 0.00 0.00 0.00 0.00 0.00 0.00 0.00 0.00 0.00 0.00 0.00 0.00 0.00 0.00 0.00 0.00 0.00 0.00 0.00 0.00 0.00 0.00 0.00 0.00 0.00 0.00 0.00 0.00 0.00 0.00 0.00 0.00 0.00 0.00 0.00 0.00 0.00 0.00 0.00 0.00 0.00 0.00 0.00 0.00 0.00 0.00 0.00 0.00 0.00 0.00 0.00 1.00 1.00 1.00 0.00 1.00 0.00 0.00 0.00 0.00 1.00 1.00 3.00 1.00 1.00 3.00 5.00 8.00 7.00 2.00 17.00 37.00 57.00 72.00 86.00 94.00 99.00 81.00 82.00 76.00 73.00 78.00 93.00 107.00 111.00 100.00 103.00 120.00 108.00 91.00 93.00 83.00 81.00 81.00 79.00 54.00 49.00 36.00 27.00 16.00 5.00 6.00 6.00 5.00 3.00 3.00 3.00 5.00 2.00 1.00 0.00 0.00 0.00 0.00 0.00 0.00 0.00 0.00 0.00 0.00 0.00 0.00 0.00 0.00 0.00 0.00 0.00 0.00 0.00 0.00 0.00 0.00 0.00 0.00 0.00 0.00 0.00 0.00 0.00 0.00 0.00 0.00 0.00 0.00 0.00 0.00 0.00 0.00 0.00 0.00 0.00 0.00 0.00 0.00 0.00 0.00 0.00 0.00 0.00 0.00 0.00 0.00 0.00 0.00 0.00 0.00 0.00 0.00 0.00 0.00 0.00 0.00 0.00 0.00 0.00 0.00 0.00 0.00 0.00 0.00 0.00 0.00 0.00 0.00 0.00 0.00 0.00 0.00 0.00 1.00 0.00 0.00 1.00 2.00 2.00 1.00 0.00 1.00 1.00 1.00 1.00 1.00 2.00 1.00 3.00 5.00 4.00 2.00 9.00 22.00 44.00 74.00 91.00 99.00 98.00 82.00 72.00 81.00 103.00 115.00 127.00 157.00 194.00 199.00 197.00 176.00 169.00 183.00 176.00 133.00 125.00 114.00 102.00 83.00 85.00 77.00 86.00 77.00 69.00 40.00 28.00 25.00 12.00 6.00 0.00 2.00 1.00 3.00 2.00 1.00 0.00 0.00 0.00 0.00 0.00 0.00 0.00 0.00 0.00 0.00 0.00 0.00 0.00 0.00 0.00 0.00 0.00 0.00 0.00 0.00 0.00 0.00 0.00 0.00 0.00 0.00 0.00 0.00 0.00 0.00 0.00 0.00 0.00 0.00 0.00 0.00 0.00 0.00 0.00 0.00 0.00 0.00 0.00 0.00 0.00 0.00 0.00 0.00 0.00 0.00 0.00 0.00 0.00 0.00 0.00 0.00 0.00 0.00 0.00 0.00 0.00 0.00 0.00 0.00 0.00 0.00 0.00 0.00 0.00 0.00 0.00 0.00 0.00 0.00 0.00 0.00 0.00 0.00 0.00 0.00 1.00 0.00 1.00 3.00 1.00 1.00 1.00 1.00 1.00 1.00 1.00 0.00 2.00 2.00 4.00 3.00 5.00 17.00 36.00 67.00 83.00 87.00 82.00 95.00 98.00 87.00 109.00 143.00 170.00 191.00 197.00 220.00 255.00 258.00 268.00 275.00 258.00 272.00 260.00 258.00 235.00 218.00 188.00 146.00 137.00 110.00 91.00 78.00 80.00 63.00 66.00 66.00 62.00 54.00 39.00 27.00 14.00 6.00 2.00 2.00 1.00 1.00 0.00 0.00 0.00 0.00 0.00 0.00 0.00 0.00 0.00 0.00 0.00 0.00 0.00 0.00 0.00 0.00 0.00 0.00 0.00 0.00 0.00 0.00 0.00 0.00 0.00 0.00 0.00 0.00 0.00 0.00 0.00 0.00 0.00 0.00 0.00 0.00 0.00 0.00 0.00 0.00 0.00 0.00 0.00 0.00 0.00 0.00 0.00 0.00 0.00 0.00 0.00 0.00 0.00 0.00 0.00 0.00 0.00 0.00 0.00 0.00 0.00 0.00 0.00 0.00 0.00 0.00 0.00 0.00 0.00 0.00 0.00 0.00 0.00 0.00 0.00 0.00 0.00 1.00 1.00 0.00 0.00 3.00 1.00 1.00 1.00 1.00 2.00 1.00 0.00 2.00 3.00 3.00 5.00 13.00 27.00 52.00 69.00 89.00 100.00 91.00 79.00 105.00 133.00 158.00 173.00 190.00 204.00 213.00 209.00 222.00 225.00 238.00 255.00 276.00 282.00 295.00 299.00 309.00 289.00 281.00 269.00 256.00 250.00 227.00 191.00 139.00 133.00 82.00 80.00 74.00 78.00 78.00 86.00 80.00 67.00 50.00 39.00 27.00 8.00 4.00 3.00 1.00 0.00 0.00 1.00 0.00 0.00 0.00 0.00 0.00 1.00 0.00 0.00 0.00 0.00 0.00 0.00 0.00 0.00 0.00 0.00 0.00 0.00 0.00 0.00 0.00 0.00 0.00 0.00 0.00 0.00 0.00 0.00 0.00 0.00 0.00 1.00 0.00 0.00 1.00 1.00 1.00 1.00 1.00 2.00 2.00 2.00 1.00 0.00 0.00 0.00 0.00 0.00 0.00 0.00 0.00 0.00 0.00 0.00 0.00 0.00 0.00 0.00 0.00 0.00 0.00 0.00 0.00 0.00 0.00 0.00 0.00 0.00 0.00 0.00 0.00 2.00 1.00 2.00 1.00 0.00 3.00 1.00 2.00 1.00 2.00 5.00 4.00 1.00 2.00 2.00 5.00 20.00 40.00 62.00 73.00 79.00 67.00 82.00 101.00 107.00 118.00 149.00 189.00 180.00 157.00 146.00 144.00 133.00 131.00 127.00 131.00 140.00 162.00 185.00 203.00 213.00 217.00 223.00 255.00 292.00 307.00 320.00 295.00 270.00 225.00 218.00 169.00 139.00 130.00 103.00 81.00 91.00 102.00 108.00 101.00 88.00 74.00 52.00 43.00 24.00 7.00 5.00 2.00 2.00 1.00 0.00 0.00 0.00 0.00 1.00 1.00 0.00 0.00 0.00 0.00 0.00 0.00 0.00 0.00 0.00 0.00 0.00 0.00 0.00 0.00 0.00 0.00 0.00 0.00 0.00 1.00 0.00 0.00 0.00 1.00 1.00 1.00 1.00 2.00 2.00 3.00 3.00 2.00 2.00 2.00 1.00 1.00 0.00 0.00 0.00 0.00 0.00 0.00 0.00 0.00 0.00 0.00 0.00 0.00 0.00 0.00 0.00 0.00 0.00 0.00 0.00 0.00 0.00 0.00 0.00 0.00 0.00 0.00 0.00 0.00 3.00 2.00 2.00 1.00 0.00 1.00 1.00 2.00 1.00 1.00 4.00 5.00 4.00 6.00 10.00 18.00 36.00 56.00 74.00 73.00 73.00 67.00 91.00 113.00 128.00 134.00 123.00 131.00 126.00 105.00 90.00 84.00 76.00 70.00 65.00 60.00 53.00 52.00 67.00 76.00 87.00 102.00 125.00 144.00 179.00 189.00 233.00 266.00 304.00 279.00 262.00 231.00 219.00 212.00 191.00 152.00 134.00 112.00 109.00 116.00 122.00 118.00 88.00 71.00 55.00 40.00 33.00 14.00 6.00 2.00 5.00 0.00 0.00 0.00 1.00 0.00 0.00 1.00 0.00 0.00 0.00 0.00 0.00 0.00 0.00 0.00 0.00 0.00 0.00 0.00 0.00 0.00 0.00 0.00 0.00 0.00 0.00 0.00 0.00 0.00 0.00 0.00 0.00 0.00 0.00 0.00 0.00 0.00 0.00 0.00 0.00 0.00 0.00 0.00 0.00 0.00 0.00 0.00 0.00 0.00 0.00 0.00 0.00 0.00 0.00 0.00 0.00 0.00 0.00 0.00 0.00 0.00 0.00 0.00 0.00 0.00 0.00 0.00 1.00 1.00 2.00 2.00 1.00 1.00 1.00 1.00 2.00 2.00 2.00 1.00 2.00 2.00 8.00 17.00 26.00 30.00 46.00 67.00 77.00 68.00 74.00 86.00 105.00 140.00 138.00 126.00 87.00 80.00 67.00 56.00 62.00 62.00 75.00 103.00 121.00 129.00 134.00 140.00 145.00 153.00 155.00 151.00 125.00 84.00 64.00 84.00 121.00 145.00 192.00 204.00 245.00 257.00 278.00 275.00 245.00 207.00 187.00 177.00 165.00 141.00 117.00 100.00 100.00 90.00 82.00 67.00 65.00 60.00 54.00 35.00 25.00 8.00 2.00 1.00 0.00 0.00 0.00 1.00 4.00 0.00 0.00 0.00 0.00 0.00 0.00 0.00 0.00 0.00 0.00 0.00 0.00 0.00 0.00 0.00 0.00 0.00 0.00 0.00 0.00 0.00 0.00 0.00 0.00 0.00 0.00 0.00 0.00 0.00 0.00 0.00 0.00 0.00 0.00 0.00 0.00 0.00 0.00 0.00 0.00 0.00 0.00 0.00 0.00 0.00 0.00 0.00 0.00 0.00 0.00 0.00 0.00 0.00 0.00 0.00 0.00 0.00 0.00 0.00 1.00 2.00 2.00 3.00 1.00 1.00 1.00 1.00 3.00 3.00 2.00 2.00 2.00 3.00 19.00 32.00 43.00 44.00 53.00 69.00 67.00 63.00 77.00 102.00 122.00 133.00 120.00 102.00 71.00 60.00 60.00 82.00 117.00 129.00 143.00 160.00 186.00 206.00 213.00 215.00 208.00 209.00 209.00 200.00 193.00 176.00 167.00 145.00 104.00 70.00 71.00 96.00 123.00 159.00 196.00 238.00 255.00 241.00 234.00 220.00 211.00 177.00 153.00 127.00 113.00 105.00 88.00 70.00 68.00 72.00 71.00 63.00 55.00 37.00 25.00 15.00 8.00 3.00 1.00 1.00 4.00 0.00 1.00 1.00 1.00 0.00 0.00 0.00 0.00 0.00 0.00 0.00 0.00 0.00 0.00 0.00 0.00 0.00 0.00 0.00 0.00 0.00 0.00 0.00 0.00 0.00 0.00 0.00 0.00 0.00 0.00 0.00 0.00 0.00 0.00 0.00 0.00 0.00 0.00 0.00 0.00 0.00 0.00 0.00 0.00 0.00 0.00 0.00 0.00 0.00 0.00 0.00 0.00 0.00 0.00 0.00 0.00 0.00 0.00 0.00 0.00 1.00 2.00 4.00 2.00 2.00 2.00 1.00 2.00 4.00 2.00 1.00 6.00 14.00 30.00 38.00 47.00 46.00 53.00 58.00 56.00 74.00 88.00 105.00 125.00 128.00 110.00 92.00 64.00 57.00 88.00 125.00 169.00 189.00 199.00 211.00 230.00 251.00 262.00 260.00 253.00 257.00 264.00 269.00 267.00 255.00 243.00 219.00 193.00 173.00 157.00 120.00 93.00 67.00 77.00 114.00 143.00 179.00 225.00 250.00 259.00 238.00 208.00 169.00 139.00 126.00 107.00 78.00 81.00 78.00 72.00 66.00 61.00 43.00 37.00 36.00 39.00 24.00 13.00 6.00 6.00 1.00 1.00 0.00 0.00 0.00 0.00 0.00 0.00 0.00 0.00 0.00 0.00 0.00 1.00 0.00 0.00 0.00 1.00 0.00 0.00 0.00 0.00 0.00 0.00 0.00 0.00 0.00 0.00 0.00 0.00 0.00 0.00 0.00 0.00 0.00 0.00 0.00 0.00 0.00 0.00 0.00 0.00 0.00 0.00 0.00 0.00 0.00 0.00 0.00 0.00 0.00 0.00 0.00 0.00 0.00 0.00 0.00 0.00 0.00 0.00 0.00 0.00 1.00 2.00 2.00 2.00 1.00 1.00 3.00 5.00 10.00 20.00 25.00 39.00 48.00 50.00 40.00 42.00 46.00 61.00 83.00 98.00 115.00 127.00 120.00 103.00 85.00 65.00 70.00 105.00 137.00 180.00 202.00 216.00 230.00 245.00 256.00 260.00 265.00 268.00 277.00 280.00 277.00 276.00 273.00 280.00 273.00 265.00 262.00 244.00 210.00 178.00 132.00 94.00 70.00 86.00 115.00 145.00 178.00 211.00 244.00 259.00 243.00 222.00 198.00 171.00 118.00 115.00 91.00 79.00 58.00 58.00 49.00 46.00 52.00 50.00 47.00 42.00 24.00 19.00 7.00 3.00 1.00 0.00 0.00 0.00 0.00 0.00 0.00 0.00 0.00 0.00 1.00 1.00 0.00 0.00 1.00 1.00 0.00 0.00 0.00 0.00 0.00 0.00 0.00 0.00 0.00 0.00 0.00 0.00 0.00 1.00 0.00 1.00 0.00 0.00 0.00 0.00 0.00 0.00 0.00 0.00 0.00 0.00 0.00 0.00 0.00 0.00 0.00 0.00 0.00 0.00 0.00 0.00 0.00 0.00 0.00 0.00 0.00 1.00 0.00 0.00 1.00 2.00 1.00 2.00 1.00 2.00 6.00 5.00 13.00 28.00 33.00 43.00 53.00 53.00 45.00 41.00 57.00 75.00 91.00 100.00 101.00 109.00 109.00 104.00 89.00 68.00 58.00 80.00 101.00 136.00 171.00 189.00 208.00 218.00 228.00 246.00 256.00 269.00 283.00 284.00 276.00 273.00 272.00 281.00 285.00 281.00 283.00 280.00 273.00 258.00 236.00 213.00 198.00 161.00 97.00 66.00 95.00 117.00 148.00 172.00 207.00 234.00 209.00 212.00 181.00 188.00 145.00 138.00 113.00 94.00 92.00 57.00 77.00 67.00 67.00 58.00 46.00 35.00 30.00 13.00 4.00 0.00 0.00 0.00 1.00 0.00 0.00 0.00 0.00 0.00 1.00 0.00 0.00 0.00 1.00 1.00 1.00 0.00 0.00 0.00 0.00 0.00 0.00 0.00 0.00 0.00 0.00 0.00 0.00 1.00 0.00 0.00 0.00 0.00 0.00 0.00 1.00 1.00 0.00 0.00 0.00 0.00 0.00 0.00 0.00 0.00 0.00 0.00 0.00 0.00 0.00 0.00 0.00 0.00 0.00 0.00 0.00 1.00 0.00 0.00 2.00 1.00 2.00 1.00 1.00 4.00 10.00 11.00 20.00 36.00 40.00 44.00 46.00 43.00 50.00 45.00 70.00 89.00 103.00 106.00 96.00 87.00 94.00 95.00 90.00 74.00 64.00 69.00 100.00 128.00 166.00 182.00 189.00 192.00 199.00 214.00 229.00 246.00 257.00 260.00 259.00 264.00 268.00 278.00 285.00 285.00 283.00 286.00 286.00 285.00 271.00 251.00 236.00 212.00 201.00 162.00 135.00 108.00 81.00 81.00 111.00 151.00 156.00 201.00 197.00 211.00 190.00 173.00 161.00 131.00 132.00 79.00 90.00 77.00 68.00 72.00 63.00 47.00 53.00 42.00 28.00 16.00 10.00 6.00 2.00 0.00 1.00 1.00 1.00 0.00 0.00 0.00 0.00 0.00 0.00 1.00 1.00 0.00 1.00 1.00 1.00 1.00 0.00 0.00 0.00 0.00 0.00 0.00 0.00 0.00 0.00 0.00 0.00 0.00 0.00 0.00 0.00 1.00 0.00 0.00 0.00 0.00 0.00 0.00 0.00 0.00 0.00 0.00 0.00 0.00 0.00 0.00 0.00 0.00 0.00 0.00 0.00 1.00 0.00 0.00 1.00 1.00 1.00 2.00 1.00 4.00 11.00 20.00 30.00 42.00 44.00 44.00 38.00 30.00 44.00 55.00 87.00 108.00 112.00 105.00 94.00 84.00 91.00 87.00 99.00 106.00 123.00 141.00 179.00 192.00 199.00 199.00 195.00 193.00 192.00 200.00 219.00 236.00 243.00 245.00 252.00 262.00 266.00 272.00 273.00 271.00 275.00 272.00 272.00 275.00 273.00 263.00 258.00 250.00 261.00 234.00 206.00 179.00 133.00 81.00 64.00 82.00 95.00 137.00 145.00 169.00 184.00 176.00 203.00 190.00 179.00 138.00 124.00 103.00 83.00 85.00 70.00 46.00 54.00 49.00 40.00 30.00 23.00 14.00 7.00 2.00 2.00 2.00 2.00 2.00 1.00 1.00 1.00 0.00 0.00 1.00 0.00 0.00 1.00 1.00 1.00 1.00 1.00 1.00 0.00 0.00 0.00 0.00 0.00 0.00 0.00 0.00 0.00 0.00 0.00 0.00 0.00 0.00 0.00 0.00 0.00 0.00 0.00 0.00 0.00 0.00 0.00 0.00 0.00 0.00 0.00 0.00 0.00 0.00 0.00 0.00 0.00 1.00 1.00 0.00 2.00 3.00 2.00 3.00 2.00 0.00 5.00 20.00 32.00 45.00 48.00 43.00 37.00 36.00 46.00 78.00 103.00 112.00 116.00 110.00 92.00 81.00 79.00 96.00 141.00 173.00 200.00 221.00 241.00 252.00 260.00 256.00 246.00 240.00 230.00 225.00 236.00 244.00 249.00 246.00 246.00 242.00 236.00 230.00 221.00 225.00 234.00 253.00 267.00 271.00 275.00 271.00 273.00 276.00 283.00 270.00 243.00 222.00 184.00 142.00 111.00 82.00 65.00 78.00 98.00 127.00 163.00 175.00 188.00 188.00 176.00 163.00 155.00 141.00 113.00 105.00 85.00 61.00 59.00 53.00 44.00 39.00 28.00 18.00 9.00 4.00 6.00 4.00 3.00 1.00 1.00 2.00 2.00 0.00 1.00 0.00 0.00 0.00 0.00 1.00 1.00 1.00 1.00 1.00 1.00 1.00 1.00 0.00 0.00 0.00 0.00 0.00 0.00 0.00 0.00 0.00 0.00 0.00 0.00 0.00 0.00 0.00 0.00 0.00 0.00 0.00 0.00 0.00 0.00 0.00 0.00 0.00 0.00 0.00 0.00 0.00 0.00 0.00 0.00 1.00 1.00 1.00 1.00 2.00 2.00 1.00 3.00 15.00 30.00 45.00 48.00 43.00 41.00 46.00 52.00 78.00 104.00 113.00 121.00 114.00 92.00 79.00 79.00 112.00 154.00 185.00 204.00 221.00 236.00 247.00 258.00 260.00 260.00 259.00 256.00 253.00 258.00 258.00 258.00 255.00 258.00 250.00 245.00 236.00 233.00 229.00 230.00 231.00 233.00 239.00 248.00 249.00 256.00 268.00 281.00 264.00 242.00 235.00 227.00 209.00 201.00 171.00 134.00 94.00 78.00 84.00 115.00 118.00 139.00 170.00 179.00 194.00 166.00 164.00 137.00 134.00 106.00 75.00 63.00 63.00 52.00 59.00 46.00 34.00 23.00 14.00 10.00 8.00 5.00 2.00 2.00 1.00 2.00 1.00 2.00 1.00 1.00 1.00 1.00 0.00 0.00 0.00 1.00 1.00 1.00 1.00 1.00 0.00 0.00 0.00 0.00 0.00 0.00 0.00 0.00 0.00 0.00 0.00 0.00 0.00 0.00 0.00 0.00 0.00 0.00 0.00 0.00 0.00 0.00 0.00 0.00 0.00 0.00 0.00 0.00 0.00 0.00 0.00 0.00 1.00 1.00 1.00 2.00 1.00 2.00 4.00 6.00 13.00 27.00 43.00 50.00 53.00 44.00 50.00 53.00 76.00 104.00 108.00 118.00 114.00 93.00 79.00 80.00 123.00 179.00 213.00 215.00 219.00 230.00 234.00 242.00 246.00 252.00 260.00 261.00 259.00 265.00 265.00 262.00 258.00 264.00 266.00 265.00 264.00 266.00 252.00 242.00 241.00 242.00 243.00 246.00 231.00 231.00 246.00 249.00 238.00 236.00 238.00 233.00 218.00 207.00 183.00 153.00 122.00 107.00 84.00 96.00 102.00 114.00 137.00 142.00 178.00 166.00 186.00 161.00 151.00 131.00 107.00 89.00 87.00 69.00 70.00 55.00 50.00 43.00 30.00 17.00 12.00 10.00 8.00 3.00 2.00 2.00 1.00 2.00 1.00 2.00 3.00 3.00 2.00 0.00 1.00 1.00 1.00 2.00 2.00 1.00 0.00 0.00 0.00 0.00 0.00 0.00 0.00 0.00 0.00 0.00 0.00 0.00 0.00 0.00 0.00 0.00 0.00 0.00 0.00 0.00 0.00 0.00 0.00 0.00 0.00 0.00 0.00 0.00 0.00 0.00 0.00 0.00 0.00 0.00 1.00 4.00 2.00 1.00 3.00 7.00 10.00 20.00 36.00 52.00 58.00 45.00 44.00 53.00 71.00 97.00 102.00 110.00 108.00 92.00 78.00 71.00 109.00 167.00 216.00 225.00 229.00 236.00 244.00 247.00 251.00 258.00 264.00 264.00 260.00 262.00 264.00 258.00 254.00 259.00 259.00 257.00 259.00 264.00 263.00 261.00 265.00 270.00 271.00 265.00 250.00 243.00 243.00 240.00 227.00 229.00 237.00 230.00 206.00 180.00 165.00 151.00 132.00 124.00 96.00 82.00 77.00 81.00 90.00 93.00 127.00 143.00 171.00 169.00 155.00 141.00 129.00 122.00 111.00 84.00 67.00 49.00 52.00 49.00 43.00 31.00 21.00 14.00 14.00 7.00 3.00 2.00 1.00 1.00 1.00 2.00 4.00 5.00 3.00 2.00 2.00 2.00 1.00 1.00 2.00 1.00 1.00 1.00 1.00 1.00 1.00 1.00 0.00 0.00 1.00 0.00 0.00 0.00 0.00 0.00 0.00 0.00 0.00 0.00 0.00 0.00 0.00 0.00 0.00 0.00 0.00 0.00 0.00 0.00 0.00 0.00 1.00 0.00 0.00 0.00 2.00 5.00 5.00 2.00 1.00 3.00 5.00 12.00 27.00 48.00 57.00 51.00 49.00 52.00 65.00 82.00 94.00 99.00 100.00 96.00 92.00 78.00 82.00 114.00 174.00 203.00 220.00 227.00 242.00 248.00 258.00 263.00 270.00 268.00 262.00 258.00 251.00 247.00 243.00 241.00 244.00 244.00 242.00 250.00 256.00 257.00 266.00 272.00 275.00 274.00 274.00 271.00 264.00 257.00 252.00 241.00 242.00 226.00 199.00 158.00 130.00 128.00 130.00 123.00 105.00 85.00 79.00 79.00 74.00 85.00 116.00 129.00 150.00 152.00 153.00 144.00 136.00 129.00 120.00 102.00 74.00 50.00 48.00 48.00 48.00 43.00 35.00 23.00 18.00 15.00 8.00 5.00 0.00 0.00 1.00 2.00 3.00 4.00 3.00 2.00 2.00 2.00 1.00 1.00 1.00 1.00 1.00 1.00 1.00 1.00 1.00 1.00 0.00 0.00 0.00 0.00 0.00 0.00 0.00 0.00 0.00 0.00 0.00 0.00 0.00 0.00 0.00 0.00 0.00 0.00 0.00 0.00 0.00 0.00 0.00 0.00 1.00 1.00 2.00 4.00 3.00 3.00 5.00 6.00 4.00 2.00 3.00 7.00 16.00 35.00 47.00 51.00 56.00 53.00 58.00 71.00 86.00 91.00 98.00 101.00 104.00 101.00 95.00 89.00 101.00 145.00 172.00 200.00 225.00 231.00 244.00 252.00 261.00 261.00 257.00 254.00 249.00 239.00 232.00 224.00 227.00 230.00 236.00 243.00 248.00 258.00 265.00 269.00 274.00 273.00 276.00 274.00 272.00 266.00 267.00 257.00 252.00 244.00 237.00 208.00 176.00 149.00 129.00 94.00 77.00 78.00 87.00 84.00 71.00 91.00 112.00 128.00 145.00 155.00 160.00 160.00 154.00 136.00 123.00 115.00 89.00 58.00 47.00 44.00 43.00 44.00 37.00 28.00 21.00 17.00 11.00 8