# vtk DataFile Version 2.0
VTK from Matlab
ASCII
DATASET STRUCTURED_POINTS
DIMENSIONS 140 68 44
SPACING 1 1 1
ORIGIN 0 0 0
POINT_DATA 418880
SCALARS mag float 1
LOOKUP_TABLE default
0.00 0.00 0.00 0.00 0.00 0.00 0.00 0.00 1.00 0.00 0.00 0.00 0.00 0.00 0.00 0.00 0.00 0.00 0.00 0.00 0.00 0.00 0.00 0.00 0.00 0.00 0.00 0.00 0.00 0.00 0.00 0.00 0.00 0.00 0.00 0.00 0.00 0.00 0.00 0.00 0.00 0.00 0.00 0.00 0.00 0.00 0.00 0.00 0.00 0.00 0.00 0.00 0.00 0.00 0.00 0.00 0.00 0.00 0.00 0.00 0.00 0.00 0.00 0.00 0.00 0.00 0.00 0.00 0.00 0.00 0.00 0.00 0.00 0.00 0.00 0.00 0.00 0.00 0.00 0.00 0.00 0.00 0.00 0.00 0.00 0.00 0.00 0.00 0.00 0.00 0.00 0.00 0.00 0.00 0.00 0.00 0.00 0.00 0.00 0.00 0.00 0.00 0.00 0.00 0.00 0.00 0.00 0.00 0.00 0.00 0.00 0.00 0.00 0.00 0.00 0.00 0.00 0.00 0.00 0.00 0.00 0.00 0.00 0.00 0.00 0.00 0.00 0.00 0.00 0.00 0.00 0.00 0.00 0.00 0.00 0.00 0.00 0.00 0.00 0.00 0.00 0.00 0.00 0.00 0.00 1.00 1.00 0.00 1.00 0.00 1.00 0.00 1.00 0.00 0.00 0.00 0.00 0.00 0.00 0.00 0.00 0.00 0.00 0.00 0.00 0.00 0.00 0.00 0.00 0.00 0.00 0.00 0.00 0.00 0.00 0.00 0.00 0.00 0.00 0.00 0.00 0.00 0.00 0.00 0.00 0.00 0.00 0.00 0.00 0.00 0.00 0.00 0.00 0.00 0.00 0.00 0.00 0.00 0.00 0.00 0.00 0.00 0.00 0.00 0.00 0.00 0.00 0.00 0.00 0.00 0.00 0.00 0.00 0.00 0.00 0.00 0.00 0.00 0.00 0.00 0.00 0.00 0.00 0.00 0.00 0.00 0.00 0.00 0.00 0.00 0.00 0.00 0.00 0.00 0.00 0.00 0.00 0.00 0.00 0.00 0.00 0.00 0.00 0.00 0.00 0.00 0.00 0.00 0.00 0.00 0.00 0.00 0.00 0.00 0.00 0.00 0.00 0.00 0.00 0.00 0.00 0.00 0.00 0.00 0.00 0.00 0.00 0.00 0.00 0.00 0.00 0.00 0.00 0.00 0.00 0.00 0.00 0.00 0.00 0.00 0.00 0.00 0.00 0.00 0.00 1.00 1.00 0.00 1.00 1.00 1.00 0.00 1.00 0.00 1.00 0.00 0.00 0.00 0.00 0.00 0.00 0.00 0.00 0.00 0.00 0.00 0.00 0.00 1.00 1.00 0.00 0.00 0.00 0.00 0.00 0.00 0.00 0.00 0.00 0.00 0.00 0.00 0.00 0.00 0.00 0.00 0.00 0.00 0.00 0.00 0.00 0.00 0.00 0.00 0.00 0.00 0.00 0.00 0.00 0.00 0.00 0.00 0.00 0.00 0.00 0.00 0.00 0.00 0.00 0.00 0.00 0.00 0.00 0.00 0.00 0.00 0.00 0.00 0.00 0.00 0.00 0.00 0.00 0.00 0.00 0.00 0.00 0.00 0.00 0.00 0.00 0.00 0.00 0.00 0.00 0.00 0.00 0.00 0.00 0.00 0.00 0.00 0.00 0.00 0.00 0.00 0.00 0.00 0.00 0.00 0.00 0.00 0.00 0.00 0.00 0.00 0.00 0.00 0.00 0.00 0.00 0.00 0.00 0.00 0.00 0.00 0.00 0.00 0.00 0.00 0.00 0.00 0.00 0.00 0.00 0.00 0.00 0.00 0.00 0.00 0.00 0.00 0.00 0.00 0.00 1.00 1.00 1.00 1.00 1.00 1.00 0.00 0.00 0.00 0.00 0.00 0.00 0.00 0.00 0.00 0.00 0.00 0.00 0.00 0.00 0.00 0.00 0.00 1.00 1.00 0.00 0.00 0.00 0.00 0.00 0.00 0.00 0.00 0.00 0.00 0.00 0.00 0.00 0.00 0.00 0.00 0.00 0.00 0.00 0.00 0.00 0.00 0.00 0.00 0.00 0.00 0.00 0.00 0.00 0.00 0.00 0.00 0.00 0.00 0.00 0.00 0.00 0.00 0.00 0.00 0.00 0.00 0.00 0.00 0.00 0.00 0.00 0.00 0.00 0.00 0.00 0.00 0.00 0.00 0.00 0.00 0.00 0.00 0.00 0.00 0.00 0.00 0.00 0.00 0.00 0.00 0.00 0.00 0.00 0.00 0.00 0.00 0.00 0.00 0.00 0.00 0.00 0.00 0.00 0.00 0.00 0.00 0.00 0.00 0.00 0.00 0.00 0.00 0.00 0.00 0.00 0.00 0.00 0.00 0.00 0.00 0.00 0.00 0.00 0.00 0.00 0.00 0.00 0.00 0.00 0.00 0.00 0.00 0.00 0.00 0.00 0.00 0.00 1.00 0.00 0.00 0.00 1.00 1.00 0.00 1.00 0.00 0.00 0.00 0.00 0.00 0.00 1.00 0.00 0.00 0.00 0.00 0.00 0.00 0.00 0.00 0.00 1.00 1.00 1.00 0.00 0.00 0.00 0.00 0.00 0.00 0.00 0.00 0.00 0.00 0.00 0.00 0.00 0.00 0.00 0.00 0.00 0.00 0.00 0.00 0.00 0.00 0.00 0.00 0.00 0.00 0.00 0.00 0.00 0.00 0.00 0.00 0.00 0.00 0.00 0.00 0.00 0.00 0.00 0.00 0.00 0.00 0.00 0.00 0.00 0.00 0.00 0.00 0.00 0.00 0.00 0.00 0.00 0.00 0.00 0.00 0.00 0.00 0.00 0.00 0.00 0.00 0.00 0.00 0.00 0.00 0.00 0.00 0.00 0.00 0.00 0.00 0.00 0.00 0.00 0.00 0.00 0.00 0.00 0.00 0.00 0.00 0.00 0.00 0.00 0.00 0.00 0.00 0.00 0.00 0.00 0.00 0.00 0.00 0.00 0.00 0.00 0.00 0.00 0.00 0.00 0.00 0.00 0.00 0.00 0.00 0.00 0.00 0.00 0.00 0.00 0.00 0.00 0.00 0.00 0.00 0.00 0.00 0.00 0.00 1.00 0.00 0.00 0.00 1.00 0.00 0.00 1.00 0.00 0.00 0.00 0.00 0.00 0.00 0.00 0.00 0.00 0.00 0.00 0.00 0.00 0.00 0.00 0.00 0.00 0.00 0.00 0.00 0.00 0.00 0.00 0.00 0.00 0.00 0.00 0.00 0.00 0.00 0.00 0.00 0.00 0.00 0.00 0.00 0.00 0.00 0.00 0.00 0.00 0.00 0.00 0.00 0.00 0.00 0.00 0.00 0.00 0.00 0.00 0.00 0.00 0.00 0.00 0.00 0.00 0.00 0.00 0.00 0.00 0.00 0.00 0.00 0.00 0.00 0.00 0.00 0.00 0.00 0.00 0.00 0.00 0.00 0.00 0.00 0.00 0.00 0.00 0.00 0.00 0.00 0.00 0.00 0.00 0.00 0.00 0.00 0.00 0.00 0.00 0.00 0.00 0.00 0.00 0.00 0.00 0.00 0.00 0.00 0.00 0.00 0.00 0.00 0.00 0.00 0.00 0.00 0.00 0.00 0.00 0.00 0.00 0.00 0.00 0.00 0.00 0.00 0.00 0.00 0.00 0.00 0.00 0.00 0.00 0.00 0.00 0.00 0.00 0.00 0.00 0.00 1.00 1.00 1.00 0.00 1.00 1.00 1.00 1.00 0.00 0.00 0.00 0.00 0.00 0.00 0.00 0.00 0.00 0.00 0.00 0.00 0.00 0.00 0.00 0.00 0.00 0.00 0.00 0.00 0.00 0.00 0.00 0.00 0.00 0.00 0.00 0.00 0.00 0.00 0.00 0.00 0.00 0.00 0.00 0.00 0.00 0.00 0.00 0.00 0.00 0.00 0.00 0.00 0.00 0.00 0.00 0.00 0.00 0.00 0.00 0.00 0.00 0.00 0.00 0.00 0.00 0.00 0.00 0.00 0.00 0.00 0.00 0.00 0.00 0.00 0.00 0.00 0.00 0.00 0.00 0.00 0.00 0.00 0.00 0.00 0.00 0.00 0.00 0.00 0.00 0.00 0.00 0.00 0.00 0.00 0.00 0.00 0.00 0.00 0.00 0.00 0.00 0.00 0.00 0.00 0.00 0.00 0.00 0.00 0.00 0.00 0.00 0.00 0.00 0.00 0.00 0.00 0.00 0.00 0.00 0.00 0.00 0.00 0.00 0.00 0.00 0.00 0.00 0.00 0.00 0.00 0.00 0.00 0.00 0.00 0.00 0.00 1.00 1.00 1.00 0.00 1.00 1.00 1.00 1.00 2.00 1.00 0.00 0.00 0.00 0.00 0.00 0.00 0.00 0.00 0.00 0.00 0.00 0.00 0.00 0.00 0.00 0.00 0.00 0.00 0.00 0.00 0.00 0.00 0.00 0.00 0.00 0.00 0.00 0.00 0.00 0.00 0.00 0.00 0.00 0.00 0.00 0.00 0.00 0.00 0.00 0.00 0.00 0.00 0.00 0.00 0.00 0.00 0.00 0.00 0.00 0.00 0.00 0.00 0.00 0.00 0.00 0.00 0.00 0.00 0.00 0.00 0.00 0.00 0.00 0.00 0.00 0.00 0.00 0.00 0.00 0.00 0.00 0.00 0.00 0.00 0.00 0.00 0.00 0.00 0.00 0.00 0.00 0.00 0.00 0.00 0.00 0.00 0.00 0.00 0.00 0.00 0.00 0.00 0.00 0.00 0.00 0.00 0.00 0.00 0.00 0.00 0.00 0.00 0.00 0.00 0.00 0.00 0.00 0.00 0.00 0.00 0.00 0.00 0.00 0.00 0.00 0.00 0.00 0.00 0.00 0.00 0.00 0.00 0.00 0.00 0.00 0.00 0.00 0.00 0.00 1.00 2.00 1.00 1.00 0.00 1.00 1.00 1.00 2.00 1.00 0.00 0.00 0.00 0.00 0.00 0.00 0.00 0.00 0.00 0.00 0.00 0.00 1.00 1.00 1.00 1.00 0.00 0.00 0.00 0.00 0.00 0.00 0.00 0.00 0.00 0.00 0.00 0.00 0.00 0.00 0.00 0.00 0.00 0.00 0.00 0.00 0.00 0.00 0.00 0.00 0.00 0.00 0.00 0.00 0.00 0.00 0.00 0.00 0.00 0.00 0.00 0.00 0.00 0.00 0.00 0.00 0.00 0.00 0.00 0.00 0.00 0.00 0.00 0.00 0.00 0.00 0.00 0.00 0.00 0.00 0.00 0.00 0.00 0.00 0.00 0.00 0.00 0.00 0.00 0.00 0.00 0.00 0.00 0.00 0.00 0.00 0.00 0.00 0.00 0.00 0.00 0.00 0.00 0.00 0.00 0.00 0.00 0.00 0.00 0.00 0.00 0.00 0.00 0.00 0.00 0.00 0.00 0.00 0.00 0.00 0.00 0.00 0.00 0.00 0.00 0.00 0.00 0.00 0.00 0.00 0.00 0.00 0.00 0.00 0.00 0.00 0.00 0.00 0.00 0.00 0.00 1.00 1.00 1.00 1.00 1.00 0.00 1.00 1.00 1.00 0.00 0.00 0.00 0.00 0.00 0.00 0.00 0.00 0.00 0.00 0.00 1.00 1.00 0.00 1.00 1.00 0.00 0.00 0.00 0.00 0.00 0.00 0.00 0.00 0.00 0.00 0.00 0.00 0.00 0.00 0.00 0.00 0.00 0.00 0.00 0.00 0.00 0.00 0.00 0.00 0.00 0.00 0.00 0.00 0.00 0.00 0.00 0.00 0.00 0.00 0.00 0.00 0.00 0.00 0.00 0.00 0.00 0.00 0.00 0.00 0.00 0.00 0.00 0.00 0.00 0.00 0.00 0.00 0.00 0.00 0.00 0.00 0.00 0.00 0.00 0.00 0.00 0.00 0.00 0.00 0.00 0.00 0.00 0.00 0.00 0.00 0.00 0.00 0.00 0.00 0.00 0.00 0.00 0.00 0.00 0.00 0.00 0.00 0.00 0.00 0.00 0.00 0.00 0.00 0.00 0.00 0.00 0.00 0.00 0.00 0.00 0.00 0.00 0.00 0.00 0.00 0.00 0.00 0.00 0.00 0.00 0.00 0.00 0.00 0.00 0.00 0.00 0.00 0.00 0.00 0.00 1.00 1.00 0.00 1.00 0.00 0.00 0.00 0.00 0.00 0.00 0.00 0.00 0.00 0.00 1.00 0.00 0.00 1.00 0.00 0.00 1.00 1.00 1.00 2.00 1.00 0.00 0.00 1.00 2.00 1.00 0.00 1.00 1.00 1.00 2.00 2.00 1.00 1.00 0.00 0.00 0.00 0.00 0.00 0.00 0.00 0.00 0.00 0.00 0.00 0.00 0.00 0.00 0.00 0.00 0.00 0.00 0.00 0.00 0.00 0.00 0.00 0.00 0.00 0.00 0.00 0.00 0.00 0.00 0.00 0.00 0.00 0.00 0.00 0.00 0.00 0.00 0.00 0.00 0.00 0.00 0.00 0.00 0.00 0.00 0.00 0.00 0.00 0.00 0.00 0.00 0.00 0.00 0.00 0.00 0.00 0.00 0.00 0.00 0.00 0.00 0.00 0.00 0.00 0.00 0.00 0.00 0.00 0.00 0.00 0.00 0.00 0.00 0.00 0.00 0.00 0.00 0.00 0.00 0.00 0.00 0.00 0.00 0.00 0.00 0.00 0.00 0.00 0.00 0.00 0.00 0.00 0.00 0.00 0.00 0.00 0.00 0.00 1.00 0.00 1.00 1.00 1.00 1.00 1.00 0.00 0.00 0.00 0.00 0.00 0.00 0.00 0.00 0.00 1.00 0.00 0.00 0.00 0.00 0.00 0.00 0.00 1.00 1.00 3.00 1.00 1.00 1.00 2.00 2.00 1.00 1.00 1.00 1.00 1.00 2.00 2.00 1.00 1.00 1.00 0.00 0.00 0.00 0.00 1.00 0.00 0.00 0.00 0.00 0.00 0.00 0.00 0.00 0.00 0.00 0.00 0.00 0.00 0.00 0.00 0.00 0.00 0.00 0.00 0.00 0.00 0.00 0.00 0.00 0.00 0.00 0.00 0.00 0.00 0.00 0.00 0.00 0.00 0.00 0.00 0.00 0.00 0.00 0.00 0.00 0.00 0.00 0.00 0.00 0.00 0.00 0.00 0.00 0.00 0.00 0.00 0.00 0.00 0.00 0.00 0.00 0.00 0.00 0.00 0.00 0.00 0.00 0.00 0.00 0.00 0.00 0.00 0.00 0.00 0.00 0.00 0.00 0.00 0.00 0.00 0.00 0.00 0.00 0.00 0.00 0.00 0.00 0.00 0.00 0.00 0.00 0.00 0.00 0.00 0.00 0.00 0.00 0.00 0.00 0.00 1.00 1.00 1.00 1.00 1.00 0.00 0.00 1.00 0.00 0.00 0.00 0.00 0.00 0.00 0.00 0.00 1.00 0.00 0.00 0.00 0.00 1.00 1.00 1.00 1.00 1.00 0.00 0.00 1.00 1.00 1.00 0.00 0.00 1.00 1.00 1.00 0.00 0.00 1.00 1.00 0.00 0.00 0.00 0.00 1.00 0.00 0.00 0.00 0.00 0.00 0.00 0.00 0.00 0.00 0.00 0.00 0.00 0.00 0.00 0.00 0.00 0.00 0.00 0.00 0.00 0.00 0.00 0.00 0.00 0.00 0.00 0.00 0.00 0.00 0.00 0.00 0.00 0.00 0.00 0.00 0.00 0.00 0.00 0.00 0.00 0.00 0.00 0.00 0.00 0.00 0.00 0.00 0.00 0.00 0.00 0.00 0.00 0.00 0.00 0.00 0.00 0.00 0.00 0.00 0.00 0.00 0.00 0.00 0.00 0.00 0.00 0.00 0.00 0.00 0.00 0.00 0.00 0.00 0.00 0.00 0.00 0.00 0.00 0.00 0.00 0.00 0.00 0.00 0.00 0.00 0.00 0.00 0.00 0.00 0.00 0.00 0.00 0.00 0.00 0.00 0.00 1.00 1.00 1.00 1.00 0.00 1.00 1.00 1.00 1.00 1.00 1.00 1.00 0.00 0.00 0.00 0.00 0.00 1.00 0.00 1.00 3.00 2.00 2.00 3.00 2.00 1.00 1.00 1.00 1.00 0.00 0.00 0.00 1.00 1.00 0.00 0.00 1.00 0.00 0.00 0.00 0.00 0.00 0.00 0.00 0.00 0.00 0.00 0.00 0.00 0.00 0.00 0.00 0.00 0.00 0.00 0.00 0.00 0.00 0.00 0.00 0.00 0.00 0.00 0.00 0.00 0.00 0.00 0.00 0.00 0.00 0.00 0.00 0.00 0.00 0.00 0.00 0.00 0.00 0.00 0.00 0.00 0.00 0.00 0.00 0.00 0.00 0.00 0.00 0.00 0.00 0.00 0.00 0.00 0.00 0.00 0.00 0.00 0.00 0.00 0.00 0.00 0.00 0.00 0.00 0.00 0.00 0.00 0.00 0.00 0.00 0.00 0.00 0.00 0.00 0.00 0.00 0.00 0.00 0.00 0.00 0.00 0.00 0.00 0.00 0.00 0.00 0.00 0.00 0.00 0.00 0.00 0.00 0.00 0.00 0.00 0.00 0.00 0.00 0.00 2.00 1.00 1.00 1.00 0.00 0.00 1.00 1.00 1.00 1.00 1.00 1.00 0.00 1.00 0.00 0.00 0.00 1.00 3.00 1.00 2.00 4.00 2.00 3.00 4.00 3.00 2.00 2.00 1.00 2.00 1.00 1.00 0.00 0.00 0.00 1.00 1.00 2.00 1.00 1.00 1.00 2.00 2.00 2.00 0.00 0.00 0.00 0.00 0.00 0.00 0.00 0.00 0.00 0.00 0.00 0.00 0.00 0.00 0.00 0.00 0.00 0.00 0.00 0.00 0.00 0.00 0.00 0.00 0.00 0.00 0.00 0.00 0.00 0.00 0.00 0.00 0.00 0.00 0.00 0.00 0.00 0.00 0.00 0.00 0.00 0.00 0.00 0.00 0.00 0.00 0.00 0.00 0.00 0.00 0.00 0.00 0.00 0.00 0.00 0.00 0.00 0.00 0.00 0.00 0.00 0.00 0.00 0.00 0.00 0.00 0.00 0.00 0.00 0.00 0.00 0.00 0.00 0.00 0.00 0.00 0.00 0.00 0.00 0.00 0.00 0.00 0.00 0.00 0.00 0.00 0.00 0.00 0.00 0.00 0.00 0.00 0.00 0.00 0.00 0.00 2.00 1.00 1.00 1.00 1.00 0.00 1.00 1.00 1.00 1.00 1.00 1.00 0.00 2.00 0.00 1.00 2.00 2.00 3.00 1.00 2.00 3.00 2.00 2.00 2.00 2.00 3.00 3.00 2.00 3.00 2.00 2.00 1.00 1.00 1.00 1.00 1.00 1.00 1.00 2.00 3.00 5.00 6.00 5.00 2.00 1.00 1.00 0.00 0.00 0.00 0.00 0.00 0.00 0.00 0.00 0.00 0.00 0.00 0.00 0.00 0.00 0.00 0.00 0.00 0.00 0.00 0.00 0.00 0.00 0.00 0.00 0.00 0.00 0.00 0.00 0.00 0.00 0.00 1.00 0.00 0.00 0.00 0.00 0.00 0.00 0.00 0.00 0.00 0.00 0.00 0.00 0.00 0.00 0.00 0.00 0.00 0.00 0.00 0.00 0.00 0.00 0.00 0.00 0.00 0.00 0.00 0.00 0.00 0.00 0.00 0.00 0.00 0.00 0.00 0.00 0.00 0.00 0.00 0.00 0.00 0.00 0.00 0.00 0.00 0.00 0.00 0.00 0.00 0.00 0.00 0.00 0.00 0.00 0.00 0.00 0.00 0.00 0.00 0.00 0.00 1.00 1.00 1.00 1.00 1.00 2.00 1.00 1.00 1.00 1.00 1.00 3.00 2.00 2.00 2.00 2.00 2.00 1.00 2.00 2.00 2.00 3.00 3.00 3.00 3.00 4.00 5.00 6.00 5.00 3.00 2.00 2.00 2.00 2.00 2.00 3.00 5.00 7.00 8.00 4.00 3.00 4.00 4.00 3.00 3.00 1.00 2.00 2.00 3.00 0.00 0.00 0.00 0.00 0.00 0.00 0.00 0.00 0.00 0.00 0.00 0.00 0.00 0.00 0.00 0.00 0.00 0.00 0.00 0.00 0.00 0.00 0.00 0.00 0.00 0.00 0.00 0.00 0.00 0.00 0.00 0.00 0.00 0.00 0.00 0.00 0.00 0.00 0.00 0.00 0.00 0.00 0.00 0.00 0.00 0.00 0.00 0.00 0.00 0.00 0.00 0.00 0.00 0.00 0.00 0.00 0.00 0.00 0.00 0.00 0.00 0.00 0.00 0.00 0.00 0.00 0.00 0.00 0.00 0.00 0.00 0.00 0.00 0.00 0.00 0.00 0.00 0.00 0.00 0.00 0.00 0.00 0.00 0.00 0.00 0.00 0.00 0.00 0.00 0.00 0.00 0.00 1.00 1.00 1.00 1.00 3.00 2.00 1.00 1.00 1.00 1.00 4.00 3.00 2.00 2.00 1.00 1.00 1.00 2.00 3.00 2.00 1.00 2.00 3.00 2.00 3.00 4.00 5.00 7.00 4.00 4.00 2.00 4.00 4.00 3.00 3.00 8.00 15.00 20.00 20.00 19.00 18.00 16.00 11.00 9.00 4.00 4.00 5.00 5.00 0.00 0.00 0.00 0.00 0.00 0.00 0.00 0.00 0.00 0.00 0.00 0.00 0.00 0.00 0.00 0.00 0.00 0.00 0.00 0.00 0.00 0.00 0.00 0.00 0.00 0.00 0.00 0.00 0.00 0.00 0.00 0.00 0.00 0.00 0.00 0.00 0.00 0.00 0.00 0.00 0.00 0.00 0.00 0.00 0.00 0.00 0.00 0.00 0.00 0.00 0.00 0.00 0.00 0.00 0.00 0.00 0.00 0.00 0.00 0.00 0.00 0.00 0.00 0.00 0.00 0.00 0.00 0.00 0.00 0.00 0.00 0.00 0.00 0.00 0.00 0.00 0.00 0.00 0.00 0.00 0.00 0.00 0.00 0.00 0.00 0.00 0.00 0.00 0.00 0.00 0.00 1.00 1.00 0.00 0.00 2.00 4.00 3.00 1.00 1.00 1.00 1.00 2.00 3.00 2.00 1.00 0.00 1.00 2.00 1.00 1.00 1.00 0.00 1.00 2.00 2.00 1.00 2.00 4.00 3.00 2.00 1.00 0.00 5.00 24.00 37.00 30.00 17.00 7.00 7.00 11.00 20.00 23.00 24.00 18.00 14.00 9.00 13.00 13.00 10.00 4.00 0.00 0.00 0.00 0.00 0.00 0.00 0.00 0.00 0.00 0.00 0.00 0.00 0.00 0.00 0.00 0.00 0.00 0.00 0.00 0.00 0.00 0.00 0.00 0.00 0.00 0.00 0.00 0.00 0.00 0.00 0.00 0.00 0.00 0.00 0.00 0.00 0.00 0.00 0.00 0.00 0.00 0.00 0.00 0.00 0.00 0.00 0.00 0.00 0.00 0.00 0.00 0.00 0.00 0.00 0.00 0.00 0.00 0.00 0.00 0.00 0.00 0.00 0.00 0.00 0.00 0.00 0.00 0.00 0.00 0.00 0.00 0.00 0.00 0.00 0.00 0.00 0.00 0.00 0.00 0.00 0.00 0.00 0.00 0.00 0.00 0.00 0.00 0.00 0.00 0.00 1.00 1.00 1.00 1.00 1.00 5.00 2.00 2.00 2.00 1.00 0.00 1.00 3.00 1.00 1.00 2.00 2.00 1.00 1.00 0.00 2.00 2.00 2.00 2.00 1.00 1.00 6.00 15.00 31.00 46.00 52.00 65.00 71.00 85.00 85.00 75.00 81.00 82.00 79.00 64.00 58.00 50.00 47.00 30.00 15.00 10.00 14.00 14.00 13.00 10.00 10.00 14.00 8.00 5.00 2.00 2.00 1.00 0.00 0.00 1.00 0.00 0.00 0.00 0.00 0.00 0.00 0.00 0.00 0.00 0.00 0.00 0.00 0.00 0.00 0.00 0.00 0.00 0.00 0.00 0.00 0.00 0.00 0.00 0.00 0.00 0.00 0.00 0.00 0.00 0.00 0.00 0.00 0.00 0.00 0.00 0.00 0.00 0.00 0.00 0.00 0.00 0.00 0.00 0.00 0.00 0.00 0.00 0.00 0.00 0.00 0.00 0.00 0.00 0.00 0.00 0.00 0.00 0.00 0.00 0.00 0.00 0.00 0.00 0.00 0.00 0.00 0.00 0.00 0.00 0.00 0.00 0.00 0.00 0.00 0.00 0.00 0.00 0.00 0.00 0.00 1.00 1.00 1.00 1.00 0.00 6.00 2.00 2.00 1.00 1.00 1.00 2.00 2.00 1.00 2.00 2.00 2.00 2.00 3.00 5.00 8.00 5.00 1.00 2.00 11.00 33.00 55.00 63.00 76.00 78.00 95.00 105.00 94.00 81.00 87.00 99.00 112.00 117.00 127.00 121.00 110.00 104.00 105.00 94.00 68.00 49.00 35.00 16.00 12.00 10.00 12.00 15.00 11.00 13.00 8.00 8.00 5.00 3.00 3.00 3.00 1.00 0.00 0.00 0.00 0.00 0.00 0.00 0.00 0.00 0.00 0.00 0.00 0.00 0.00 0.00 0.00 0.00 0.00 0.00 0.00 0.00 0.00 0.00 0.00 0.00 0.00 0.00 0.00 0.00 0.00 0.00 0.00 0.00 0.00 0.00 0.00 0.00 0.00 0.00 0.00 0.00 0.00 0.00 0.00 0.00 0.00 0.00 0.00 0.00 0.00 0.00 0.00 0.00 0.00 0.00 0.00 0.00 0.00 0.00 0.00 0.00 0.00 0.00 0.00 0.00 0.00 0.00 0.00 0.00 0.00 0.00 0.00 0.00 0.00 0.00 0.00 0.00 0.00 0.00 0.00 1.00 1.00 2.00 1.00 1.00 1.00 0.00 1.00 1.00 1.00 2.00 2.00 2.00 1.00 3.00 1.00 2.00 4.00 5.00 9.00 10.00 5.00 17.00 36.00 56.00 73.00 88.00 96.00 99.00 83.00 83.00 78.00 74.00 76.00 91.00 105.00 110.00 102.00 105.00 123.00 111.00 101.00 103.00 94.00 89.00 86.00 81.00 56.00 50.00 35.00 26.00 16.00 6.00 8.00 8.00 6.00 5.00 4.00 4.00 5.00 1.00 0.00 0.00 0.00 0.00 0.00 0.00 0.00 0.00 0.00 0.00 0.00 0.00 0.00 0.00 0.00 0.00 0.00 0.00 0.00 0.00 0.00 0.00 0.00 0.00 0.00 0.00 0.00 0.00 0.00 0.00 0.00 0.00 0.00 0.00 0.00 0.00 0.00 0.00 0.00 0.00 0.00 0.00 0.00 0.00 0.00 0.00 0.00 0.00 0.00 0.00 0.00 0.00 0.00 0.00 0.00 0.00 0.00 0.00 0.00 0.00 0.00 0.00 0.00 0.00 0.00 0.00 0.00 0.00 0.00 0.00 0.00 0.00 0.00 0.00 0.00 0.00 0.00 1.00 0.00 0.00 3.00 3.00 1.00 1.00 1.00 1.00 2.00 2.00 1.00 2.00 2.00 2.00 1.00 2.00 2.00 6.00 8.00 4.00 2.00 8.00 20.00 43.00 72.00 91.00 103.00 102.00 87.00 75.00 77.00 101.00 115.00 124.00 151.00 190.00 197.00 192.00 171.00 165.00 180.00 174.00 133.00 126.00 115.00 103.00 85.00 85.00 78.00 89.00 78.00 69.00 41.00 28.00 24.00 11.00 6.00 1.00 2.00 2.00 4.00 3.00 2.00 0.00 0.00 0.00 0.00 0.00 0.00 0.00 0.00 0.00 0.00 0.00 0.00 0.00 0.00 0.00 0.00 0.00 0.00 0.00 0.00 0.00 0.00 0.00 0.00 0.00 0.00 0.00 0.00 0.00 0.00 0.00 0.00 0.00 0.00 0.00 0.00 0.00 0.00 0.00 0.00 0.00 0.00 0.00 0.00 0.00 0.00 0.00 0.00 0.00 0.00 0.00 0.00 0.00 0.00 0.00 0.00 0.00 0.00 0.00 0.00 0.00 0.00 0.00 0.00 0.00 0.00 0.00 0.00 0.00 0.00 0.00 0.00 0.00 0.00 0.00 0.00 2.00 0.00 0.00 4.00 4.00 0.00 2.00 1.00 2.00 2.00 3.00 2.00 1.00 1.00 1.00 1.00 4.00 3.00 9.00 9.00 4.00 12.00 31.00 62.00 80.00 87.00 84.00 99.00 101.00 87.00 112.00 143.00 170.00 191.00 195.00 215.00 250.00 256.00 266.00 271.00 255.00 271.00 260.00 256.00 233.00 216.00 187.00 144.00 133.00 107.00 89.00 79.00 80.00 64.00 66.00 65.00 62.00 53.00 38.00 26.00 12.00 5.00 1.00 1.00 0.00 0.00 0.00 0.00 0.00 0.00 0.00 0.00 0.00 0.00 0.00 0.00 0.00 0.00 0.00 0.00 0.00 0.00 0.00 0.00 0.00 0.00 0.00 0.00 0.00 0.00 0.00 0.00 0.00 0.00 0.00 0.00 0.00 0.00 0.00 0.00 0.00 0.00 0.00 0.00 0.00 0.00 0.00 0.00 0.00 0.00 0.00 0.00 0.00 0.00 0.00 0.00 0.00 0.00 0.00 0.00 0.00 0.00 0.00 0.00 0.00 0.00 0.00 0.00 0.00 0.00 0.00 0.00 0.00 0.00 0.00 0.00 0.00 0.00 0.00 0.00 1.00 0.00 1.00 2.00 4.00 0.00 1.00 2.00 2.00 2.00 2.00 2.00 2.00 1.00 1.00 3.00 4.00 3.00 5.00 9.00 25.00 49.00 66.00 87.00 101.00 91.00 76.00 100.00 132.00 153.00 167.00 188.00 205.00 215.00 215.00 228.00 228.00 243.00 261.00 282.00 285.00 297.00 301.00 308.00 287.00 278.00 266.00 252.00 246.00 222.00 185.00 136.00 132.00 82.00 80.00 75.00 79.00 78.00 86.00 80.00 66.00 49.00 38.00 26.00 7.00 2.00 2.00 0.00 0.00 0.00 0.00 0.00 0.00 0.00 0.00 0.00 0.00 0.00 0.00 0.00 0.00 0.00 0.00 0.00 0.00 0.00 0.00 0.00 0.00 0.00 0.00 0.00 0.00 0.00 0.00 0.00 0.00 0.00 0.00 0.00 0.00 0.00 0.00 0.00 0.00 1.00 1.00 1.00 1.00 1.00 1.00 1.00 1.00 0.00 0.00 0.00 0.00 0.00 0.00 0.00 0.00 0.00 0.00 0.00 0.00 0.00 0.00 0.00 0.00 0.00 0.00 0.00 0.00 0.00 0.00 0.00 0.00 0.00 0.00 0.00 1.00 0.00 3.00 2.00 3.00 1.00 0.00 2.00 2.00 2.00 3.00 2.00 4.00 3.00 2.00 4.00 3.00 4.00 20.00 38.00 60.00 74.00 79.00 66.00 81.00 98.00 103.00 116.00 153.00 190.00 182.00 161.00 152.00 150.00 145.00 145.00 137.00 142.00 151.00 174.00 194.00 211.00 221.00 225.00 232.00 261.00 296.00 311.00 322.00 294.00 266.00 222.00 215.00 166.00 136.00 129.00 101.00 81.00 93.00 104.00 109.00 100.00 87.00 73.00 52.00 42.00 24.00 6.00 4.00 2.00 2.00 1.00 0.00 0.00 0.00 0.00 1.00 0.00 0.00 0.00 0.00 0.00 0.00 0.00 0.00 0.00 0.00 0.00 0.00 0.00 1.00 0.00 0.00 0.00 0.00 0.00 0.00 0.00 0.00 0.00 0.00 0.00 0.00 0.00 1.00 1.00 2.00 2.00 3.00 3.00 2.00 1.00 1.00 0.00 0.00 0.00 0.00 0.00 0.00 0.00 0.00 0.00 0.00 0.00 0.00 0.00 0.00 0.00 0.00 0.00 0.00 0.00 0.00 0.00 0.00 0.00 0.00 0.00 0.00 0.00 2.00 1.00 3.00 3.00 2.00 1.00 1.00 2.00 3.00 2.00 1.00 1.00 3.00 5.00 3.00 5.00 8.00 17.00 34.00 54.00 75.00 75.00 75.00 68.00 93.00 116.00 128.00 136.00 129.00 134.00 135.00 115.00 104.00 97.00 92.00 81.00 70.00 63.00 56.00 60.00 78.00 86.00 97.00 112.00 139.00 156.00 191.00 200.00 242.00 274.00 308.00 281.00 259.00 231.00 217.00 211.00 189.00 150.00 132.00 111.00 108.00 116.00 124.00 119.00 89.00 71.00 55.00 41.00 33.00 14.00 6.00 2.00 4.00 0.00 0.00 0.00 0.00 0.00 0.00 1.00 0.00 0.00 0.00 0.00 0.00 0.00 0.00 0.00 0.00 0.00 1.00 1.00 0.00 0.00 0.00 0.00 0.00 0.00 0.00 0.00 0.00 0.00 0.00 0.00 0.00 1.00 0.00 0.00 0.00 0.00 0.00 0.00 0.00 0.00 0.00 0.00 0.00 0.00 0.00 0.00 0.00 0.00 0.00 0.00 0.00 0.00 0.00 0.00 0.00 0.00 0.00 0.00 0.00 0.00 0.00 0.00 0.00 0.00 0.00 0.00 1.00 1.00 1.00 3.00 2.00 2.00 1.00 2.00 4.00 5.00 4.00 2.00 3.00 3.00 5.00 13.00 24.00 29.00 41.00 64.00 79.00 72.00 75.00 88.00 110.00 144.00 142.00 131.00 88.00 81.00 70.00 57.00 61.00 58.00 67.00 93.00 111.00 118.00 122.00 128.00 134.00 143.00 145.00 141.00 112.00 76.00 69.00 93.00 132.00 155.00 203.00 217.00 254.00 265.00 284.00 280.00 249.00 210.00 187.00 176.00 165.00 142.00 118.00 102.00 101.00 90.00 82.00 67.00 65.00 59.00 54.00 34.00 23.00 6.00 0.00 0.00 0.00 0.00 0.00 2.00 4.00 1.00 0.00 0.00 0.00 0.00 0.00 0.00 0.00 0.00 0.00 0.00 0.00 0.00 0.00 0.00 0.00 0.00 0.00 0.00 0.00 0.00 0.00 0.00 0.00 0.00 0.00 0.00 0.00 0.00 0.00 0.00 0.00 0.00 0.00 0.00 0.00 0.00 0.00 0.00 0.00 0.00 0.00 0.00 0.00 0.00 0.00 0.00 0.00 0.00 0.00 0.00 0.00 0.00 0.00 0.00 0.00 0.00 0.00 0.00 1.00 1.00 1.00 2.00 2.00 1.00 1.00 1.00 3.00 3.00 3.00 3.00 3.00 3.00 18.00 31.00 42.00 43.00 50.00 68.00 66.00 64.00 77.00 104.00 125.00 133.00 122.00 104.00 73.00 61.00 59.00 75.00 111.00 121.00 135.00 153.00 180.00 201.00 203.00 203.00 195.00 195.00 195.00 185.00 178.00 164.00 155.00 135.00 95.00 65.00 77.00 106.00 133.00 171.00 206.00 254.00 267.00 249.00 240.00 222.00 211.00 177.00 153.00 126.00 113.00 105.00 89.00 71.00 67.00 71.00 69.00 59.00 50.00 34.00 21.00 11.00 4.00 0.00 0.00 2.00 4.00 1.00 0.00 0.00 0.00 0.00 0.00 0.00 0.00 0.00 0.00 0.00 0.00 0.00 0.00 0.00 0.00 0.00 0.00 0.00 0.00 0.00 0.00 0.00 0.00 0.00 0.00 0.00 0.00 0.00 0.00 0.00 0.00 0.00 0.00 0.00 0.00 0.00 0.00 0.00 0.00 0.00 0.00 0.00 0.00 0.00 0.00 0.00 0.00 0.00 0.00 0.00 0.00 0.00 0.00 0.00 0.00 0.00 0.00 0.00 2.00 2.00 1.00 3.00 2.00 3.00 2.00 1.00 2.00 2.00 3.00 1.00 5.00 13.00 29.00 38.00 49.00 52.00 56.00 61.00 57.00 73.00 90.00 109.00 127.00 129.00 113.00 95.00 70.00 55.00 83.00 119.00 162.00 182.00 192.00 206.00 227.00 251.00 262.00 260.00 251.00 254.00 260.00 262.00 260.00 245.00 233.00 211.00 187.00 168.00 150.00 116.00 88.00 69.00 82.00 122.00 151.00 187.00 234.00 255.00 263.00 240.00 209.00 168.00 139.00 125.00 107.00 79.00 81.00 79.00 71.00 65.00 59.00 41.00 36.00 35.00 36.00 22.00 11.00 4.00 4.00 1.00 0.00 0.00 0.00 0.00 0.00 0.00 0.00 0.00 0.00 0.00 0.00 0.00 1.00 0.00 0.00 0.00 1.00 0.00 0.00 0.00 0.00 0.00 0.00 0.00 0.00 0.00 0.00 0.00 0.00 0.00 0.00 0.00 0.00 0.00 0.00 0.00 0.00 0.00 0.00 0.00 0.00 0.00 0.00 0.00 0.00 0.00 0.00 0.00 0.00 0.00 0.00 0.00 0.00 0.00 0.00 0.00 0.00 0.00 2.00 1.00 0.00 2.00 1.00 4.00 2.00 1.00 2.00 3.00 5.00 7.00 16.00 22.00 35.00 47.00 53.00 47.00 46.00 48.00 64.00 84.00 99.00 119.00 130.00 124.00 105.00 90.00 69.00 72.00 106.00 139.00 180.00 203.00 215.00 231.00 244.00 256.00 260.00 263.00 265.00 273.00 277.00 273.00 272.00 267.00 275.00 270.00 260.00 258.00 239.00 207.00 171.00 126.00 89.00 69.00 92.00 121.00 153.00 184.00 219.00 249.00 263.00 246.00 224.00 198.00 170.00 117.00 115.00 92.00 81.00 60.00 60.00 50.00 48.00 53.00 51.00 49.00 41.00 22.00 16.00 4.00 1.00 0.00 0.00 0.00 0.00 0.00 0.00 0.00 0.00 0.00 0.00 0.00 0.00 0.00 0.00 1.00 1.00 1.00 0.00 0.00 0.00 0.00 0.00 0.00 0.00 0.00 0.00 0.00 0.00 0.00 0.00 0.00 0.00 0.00 0.00 0.00 0.00 0.00 0.00 0.00 0.00 0.00 0.00 0.00 0.00 0.00 0.00 0.00 0.00 0.00 0.00 0.00 0.00 0.00 0.00 0.00 0.00 0.00 1.00 1.00 1.00 2.00 1.00 2.00 4.00 2.00 1.00 3.00 7.00 11.00 24.00 27.00 37.00 52.00 55.00 45.00 42.00 59.00 77.00 90.00 99.00 100.00 107.00 107.00 104.00 89.00 67.00 61.00 82.00 103.00 139.00 173.00 191.00 211.00 221.00 230.00 245.00 254.00 266.00 280.00 281.00 273.00 270.00 266.00 275.00 280.00 278.00 279.00 277.00 270.00 254.00 232.00 207.00 191.00 153.00 92.00 65.00 99.00 124.00 154.00 177.00 212.00 238.00 210.00 212.00 180.00 187.00 145.00 138.00 112.00 93.00 91.00 57.00 77.00 67.00 68.00 58.00 45.00 36.00 30.00 13.00 3.00 1.00 1.00 1.00 1.00 1.00 0.00 0.00 0.00 0.00 0.00 0.00 0.00 1.00 1.00 2.00 1.00 1.00 0.00 1.00 0.00 0.00 0.00 0.00 0.00 0.00 0.00 0.00 0.00 0.00 0.00 0.00 0.00 0.00 0.00 0.00 0.00 0.00 0.00 0.00 0.00 0.00 0.00 0.00 0.00 0.00 0.00 0.00 0.00 0.00 0.00 0.00 0.00 0.00 0.00 0.00 0.00 1.00 2.00 2.00 1.00 1.00 2.00 4.00 3.00 4.00 1.00 6.00 20.00 35.00 36.00 41.00 44.00 47.00 47.00 44.00 72.00 87.00 100.00 101.00 92.00 85.00 93.00 98.00 89.00 74.00 61.00 65.00 94.00 121.00 157.00 177.00 183.00 186.00 195.00 210.00 224.00 242.00 254.00 258.00 257.00 259.00 261.00 270.00 277.00 277.00 276.00 280.00 283.00 283.00 268.00 246.00 231.00 207.00 196.00 156.00 129.00 104.00 81.00 84.00 115.00 154.00 159.00 204.00 198.00 212.00 189.00 171.00 158.00 129.00 129.00 78.00 89.00 75.00 67.00 71.00 64.00 49.00 54.00 42.00 27.00 16.00 9.00 5.00 1.00 1.00 1.00 2.00 2.00 0.00 0.00 0.00 0.00 0.00 1.00 0.00 0.00 0.00 1.00 1.00 1.00 0.00 0.00 0.00 0.00 0.00 0.00 0.00 0.00 0.00 0.00 0.00 0.00 0.00 0.00 0.00 0.00 0.00 0.00 0.00 0.00 0.00 0.00 0.00 0.00 0.00 0.00 0.00 0.00 0.00 0.00 0.00 0.00 0.00 0.00 0.00 0.00 3.00 2.00 3.00 2.00 3.00 1.00 5.00 3.00 4.00 3.00 10.00 27.00 42.00 44.00 44.00 36.00 34.00 40.00 49.00 87.00 107.00 112.00 105.00 94.00 85.00 93.00 91.00 95.00 90.00 107.00 126.00 164.00 180.00 189.00 191.00 187.00 183.00 183.00 190.00 209.00 227.00 236.00 240.00 247.00 258.00 261.00 268.00 267.00 265.00 268.00 265.00 265.00 266.00 266.00 257.00 251.00 243.00 255.00 227.00 200.00 176.00 131.00 80.00 67.00 86.00 100.00 143.00 149.00 173.00 186.00 176.00 201.00 189.00 177.00 136.00 121.00 100.00 81.00 82.00 69.00 45.00 53.00 47.00 38.00 28.00 22.00 12.00 5.00 1.00 1.00 2.00 3.00 2.00 2.00 2.00 2.00 0.00 1.00 0.00 0.00 0.00 0.00 0.00 1.00 1.00 0.00 0.00 0.00 0.00 0.00 0.00 0.00 0.00 0.00 0.00 0.00 0.00 0.00 0.00 0.00 0.00 0.00 0.00 0.00 0.00 0.00 0.00 0.00 0.00 0.00 0.00 0.00 0.00 0.00 0.00 0.00 0.00 0.00 0.00 0.00 3.00 2.00 4.00 3.00 5.00 1.00 3.00 3.00 4.00 5.00 14.00 29.00 47.00 49.00 43.00 38.00 36.00 46.00 82.00 104.00 111.00 117.00 114.00 97.00 81.00 73.00 89.00 132.00 167.00 197.00 223.00 240.00 249.00 260.00 259.00 249.00 238.00 225.00 219.00 228.00 236.00 242.00 240.00 241.00 238.00 233.00 227.00 218.00 221.00 230.00 248.00 261.00 264.00 268.00 265.00 268.00 269.00 276.00 261.00 237.00 216.00 178.00 137.00 106.00 79.00 66.00 83.00 104.00 132.00 168.00 179.00 192.00 189.00 176.00 163.00 155.00 139.00 110.00 102.00 82.00 59.00 58.00 53.00 45.00 38.00 27.00 17.00 8.00 4.00 5.00 3.00 3.00 2.00 2.00 3.00 3.00 1.00 1.00 0.00 0.00 0.00 0.00 0.00 0.00 0.00 0.00 0.00 0.00 0.00 0.00 0.00 0.00 0.00 0.00 0.00 0.00 0.00 0.00 0.00 0.00 0.00 0.00 0.00 0.00 0.00 0.00 0.00 0.00 0.00 0.00 0.00 0.00 0.00 0.00 0.00 0.00 0.00 0.00 0.00 0.00 3.00 2.00 3.00 3.00 1.00 1.00 2.00 2.00 3.00 5.00 12.00 29.00 46.00 50.00 46.00 44.00 46.00 52.00 79.00 103.00 113.00 123.00 115.00 93.00 75.00 69.00 106.00 147.00 180.00 201.00 221.00 239.00 251.00 260.00 263.00 262.00 258.00 254.00 250.00 254.00 252.00 252.00 248.00 251.00 241.00 235.00 230.00 231.00 226.00 227.00 228.00 227.00 234.00 244.00 246.00 253.00 265.00 275.00 255.00 234.00 228.00 220.00 201.00 192.00 164.00 128.00 90.00 79.00 86.00 118.00 121.00 142.00 172.00 182.00 197.00 168.00 163.00 135.00 132.00 103.00 72.00 61.00 61.00 52.00 59.00 47.00 35.00 24.00 14.00 10.00 7.00 5.00 2.00 2.00 3.00 4.00 2.00 3.00 2.00 2.00 1.00 0.00 0.00 0.00 0.00 0.00 0.00 0.00 0.00 0.00 0.00 0.00 0.00 0.00 0.00 0.00 0.00 0.00 0.00 0.00 0.00 0.00 0.00 0.00 0.00 0.00 0.00 0.00 0.00 0.00 0.00 0.00 0.00 0.00 0.00 0.00 0.00 0.00 0.00 0.00 1.00 0.00 1.00 3.00 2.00 1.00 2.00 1.00 6.00 7.00 10.00 26.00 41.00 53.00 62.00 51.00 54.00 52.00 74.00 103.00 108.00 118.00 113.00 94.00 77.00 74.00 120.00 176.00 206.00 208.00 208.00 223.00 230.00 237.00 242.00 248.00 255.00 255.00 254.00 259.00 258.00 254.00 252.00 257.00 260.00 258.00 262.00 265.00 252.00 242.00 239.00 239.00 238.00 242.00 228.00 227.00 242.00 244.00 233.00 229.00 231.00 227.00 213.00 202.00 178.00 148.00 117.00 102.00 81.00 96.00 105.00 116.00 140.00 146.00 181.00 169.00 188.00 161.00 152.00 130.00 104.00 86.00 86.00 70.00 71.00 57.00 50.00 43.00 31.00 18.00 12.00 10.00 7.00 3.00 2.00 4.00 2.00 3.00 2.00 3.00 4.00 4.00 2.00 1.00 1.00 1.00 1.00 1.00 1.00 1.00 0.00 0.00 0.00 0.00 1.00 0.00 0.00 0.00 0.00 0.00 0.00 0.00 0.00 0.00 0.00 0.00 0.00 0.00 0.00 0.00 0.00 0.00 1.00 0.00 0.00 0.00 0.00 0.00 0.00 0.00 1.00 0.00 0.00 3.00 2.00 1.00 3.00 1.00 5.00 9.00 8.00 17.00 34.00 54.00 65.00 53.00 48.00 54.00 70.00 95.00 99.00 107.00 106.00 93.00 82.00 74.00 108.00 165.00 209.00 220.00 219.00 230.00 239.00 240.00 243.00 247.00 254.00 256.00 255.00 256.00 256.00 252.00 246.00 252.00 254.00 253.00 256.00 262.00 258.00 260.00 264.00 269.00 270.00 263.00 247.00 240.00 238.00 235.00 222.00 225.00 232.00 226.00 203.00 179.00 163.00 148.00 129.00 121.00 92.00 79.00 79.00 84.00 94.00 95.00 129.00 147.00 175.00 173.00 157.00 142.00 130.00 122.00 111.00 85.00 69.00 50.00 54.00 51.00 44.00 31.00 21.00 14.00 13.00 6.00 2.00 3.00 1.00 2.00 2.00 3.00 4.00 6.00 3.00 2.00 2.00 2.00 1.00 1.00 2.00 1.00 1.00 1.00 1.00 1.00 2.00 1.00 0.00 0.00 0.00 0.00 0.00 0.00 0.00 0.00 0.00 0.00 0.00 0.00 0.00 0.00 0.00 0.00 0.00 0.00 0.00 0.00 0.00 0.00 0.00 0.00 2.00 1.00 0.00 2.00 2.00 2.00 4.00 4.00 5.00 4.00 4.00 10.00 24.00 44.00 54.00 52.00 48.00 53.00 64.00 79.00 93.00 99.00 100.00 100.00 98.00 82.00 77.00 110.00 166.00 199.00 215.00 224.00 237.00 241.00 249.00 252.00 258.00 258.00 253.00 250.00 243.00 238.00 233.00 230.00 235.00 237.00 235.00 244.00 251.00 253.00 262.00 269.00 272.00 270.00 270.00 267.00 258.00 252.00 247.00 236.00 235.00 220.00 193.00 150.00 124.00 124.00 127.00 120.00 101.00 81.00 78.00 79.00 76.00 87.00 119.00 134.00 157.00 157.00 155.00 145.00 136.00 129.00 119.00 100.00 73.00 49.00 49.00 49.00 49.00 43.00 36.00 24.00 19.00 14.00 7.00 5.00 1.00 1.00 1.00 2.00 4.00 5.00 3.00 2.00 2.00 2.00 1.00 2.00 2.00 1.00 1.00 1.00 1.00 1.00 2.00 1.00 0.00 0.00 0.00 0.00 0.00 0.00 0.00 0.00 0.00 0.00 0.00 0.00 0.00 0.00 0.00 0.00 0.00 0.00 0.00 0.00 0.00 0.00 0.00 0.00 3.00 1.00 5.00 5.00 4.00 2.00 2.00 3.00 4.00 6.00 5.00 8.00 13.00 29.00 41.00 50.00 53.00 51.00 58.00 69.00 84.00 89.00 98.00 102.00 105.00 104.00 95.00 82.00 97.00 141.00 169.00 194.00 216.00 221.00 236.00 249.00 261.00 260.00 253.00 248.00 243.00 232.00 224.00 215.00 221.00 224.00 229.00 239.00 246.00 257.00 263.00 268.00 271.00 268.00 271.00 269.00 267.00 260.00 261.00 251.00 245.00 238.00 230.00 200.00 169.00 142.00 121.00 88.00 74.00 77.00 85.00 84.00 73.00 93.00 115.00 133.00 151.00 162.00 164.00 161.00 153.00 135.00 123.00 113.00 87.00 56.00 47.00 46.00 43.00 45.00 38.00 29.00 21.00 16.00 1