# vtk DataFile Version 2.0
VTK from Matlab
ASCII
DATASET STRUCTURED_POINTS
DIMENSIONS 140 68 44
SPACING 1 1 1
ORIGIN 0 0 0
POINT_DATA 418880
SCALARS mag float 1
LOOKUP_TABLE default
0.00 0.00 1.00 1.00 0.00 0.00 0.00 0.00 0.00 0.00 0.00 0.00 0.00 0.00 0.00 0.00 0.00 0.00 0.00 0.00 0.00 0.00 0.00 0.00 0.00 0.00 0.00 0.00 0.00 0.00 0.00 0.00 0.00 0.00 0.00 0.00 0.00 0.00 0.00 0.00 0.00 0.00 0.00 0.00 0.00 0.00 0.00 0.00 0.00 0.00 0.00 0.00 0.00 0.00 0.00 0.00 0.00 0.00 0.00 0.00 0.00 0.00 0.00 0.00 0.00 0.00 0.00 0.00 0.00 0.00 0.00 0.00 0.00 0.00 0.00 0.00 0.00 0.00 0.00 0.00 0.00 0.00 0.00 0.00 0.00 0.00 0.00 0.00 0.00 0.00 0.00 0.00 0.00 0.00 0.00 0.00 0.00 0.00 0.00 0.00 0.00 0.00 0.00 0.00 0.00 0.00 0.00 0.00 0.00 0.00 0.00 0.00 0.00 0.00 0.00 0.00 0.00 0.00 0.00 0.00 0.00 0.00 0.00 0.00 0.00 0.00 0.00 0.00 0.00 0.00 0.00 0.00 0.00 0.00 0.00 0.00 0.00 0.00 0.00 0.00 0.00 0.00 1.00 1.00 0.00 0.00 0.00 0.00 0.00 0.00 0.00 0.00 0.00 0.00 0.00 0.00 0.00 0.00 0.00 0.00 0.00 0.00 0.00 0.00 0.00 0.00 0.00 0.00 0.00 0.00 0.00 0.00 0.00 0.00 0.00 0.00 0.00 0.00 0.00 0.00 0.00 0.00 0.00 0.00 0.00 0.00 0.00 0.00 0.00 0.00 0.00 0.00 0.00 0.00 0.00 0.00 0.00 0.00 0.00 0.00 0.00 0.00 0.00 0.00 0.00 0.00 0.00 0.00 0.00 0.00 0.00 0.00 0.00 0.00 0.00 0.00 0.00 0.00 0.00 0.00 0.00 0.00 0.00 0.00 0.00 0.00 0.00 0.00 0.00 0.00 0.00 0.00 0.00 0.00 0.00 0.00 0.00 0.00 0.00 0.00 0.00 0.00 0.00 0.00 0.00 0.00 0.00 0.00 0.00 0.00 0.00 0.00 0.00 0.00 0.00 0.00 0.00 0.00 0.00 0.00 0.00 0.00 0.00 0.00 0.00 0.00 0.00 0.00 0.00 0.00 0.00 0.00 0.00 0.00 0.00 0.00 0.00 0.00 0.00 0.00 1.00 0.00 1.00 1.00 0.00 0.00 0.00 0.00 0.00 0.00 0.00 0.00 0.00 0.00 0.00 0.00 0.00 0.00 0.00 0.00 0.00 0.00 0.00 0.00 0.00 0.00 0.00 0.00 0.00 0.00 0.00 0.00 0.00 0.00 0.00 0.00 0.00 0.00 0.00 0.00 0.00 0.00 0.00 0.00 0.00 0.00 0.00 0.00 0.00 0.00 0.00 0.00 0.00 0.00 0.00 0.00 0.00 0.00 0.00 0.00 0.00 0.00 0.00 0.00 0.00 0.00 0.00 0.00 0.00 0.00 0.00 0.00 0.00 0.00 0.00 0.00 0.00 0.00 0.00 0.00 0.00 0.00 0.00 0.00 0.00 0.00 0.00 0.00 0.00 0.00 0.00 0.00 0.00 0.00 0.00 0.00 0.00 0.00 0.00 0.00 0.00 0.00 0.00 0.00 0.00 0.00 0.00 0.00 0.00 0.00 0.00 0.00 0.00 0.00 0.00 0.00 0.00 0.00 0.00 0.00 0.00 0.00 0.00 0.00 0.00 0.00 0.00 0.00 0.00 0.00 0.00 0.00 0.00 0.00 0.00 0.00 0.00 0.00 0.00 0.00 1.00 0.00 1.00 0.00 0.00 0.00 0.00 0.00 0.00 0.00 0.00 0.00 0.00 0.00 0.00 0.00 0.00 0.00 0.00 0.00 0.00 0.00 0.00 0.00 0.00 0.00 0.00 0.00 0.00 0.00 0.00 0.00 1.00 1.00 0.00 0.00 0.00 0.00 0.00 0.00 0.00 0.00 0.00 1.00 1.00 1.00 0.00 1.00 1.00 0.00 1.00 1.00 1.00 1.00 1.00 1.00 1.00 1.00 1.00 1.00 2.00 0.00 0.00 0.00 0.00 0.00 0.00 0.00 1.00 1.00 0.00 0.00 0.00 0.00 0.00 0.00 0.00 0.00 0.00 0.00 0.00 0.00 0.00 0.00 0.00 0.00 0.00 0.00 0.00 0.00 0.00 0.00 0.00 0.00 0.00 0.00 0.00 0.00 0.00 0.00 0.00 0.00 0.00 0.00 0.00 0.00 0.00 0.00 0.00 0.00 0.00 0.00 0.00 0.00 0.00 0.00 0.00 0.00 0.00 0.00 0.00 0.00 0.00 0.00 0.00 0.00 0.00 0.00 0.00 0.00 0.00 0.00 0.00 0.00 0.00 0.00 0.00 0.00 0.00 0.00 0.00 1.00 1.00 0.00 0.00 0.00 0.00 0.00 0.00 0.00 0.00 0.00 0.00 0.00 0.00 0.00 0.00 0.00 0.00 0.00 0.00 0.00 0.00 0.00 0.00 0.00 0.00 0.00 0.00 0.00 0.00 0.00 0.00 1.00 0.00 0.00 0.00 0.00 0.00 0.00 0.00 0.00 0.00 1.00 1.00 1.00 1.00 1.00 1.00 0.00 1.00 1.00 1.00 1.00 1.00 1.00 1.00 1.00 1.00 2.00 2.00 1.00 1.00 1.00 0.00 0.00 0.00 0.00 1.00 1.00 0.00 1.00 0.00 0.00 0.00 0.00 0.00 0.00 0.00 0.00 0.00 0.00 0.00 0.00 0.00 0.00 0.00 0.00 0.00 0.00 0.00 0.00 0.00 0.00 0.00 0.00 0.00 0.00 0.00 0.00 0.00 0.00 0.00 0.00 0.00 0.00 0.00 0.00 0.00 0.00 0.00 0.00 0.00 0.00 0.00 0.00 0.00 0.00 0.00 0.00 0.00 0.00 0.00 0.00 0.00 0.00 0.00 0.00 0.00 0.00 0.00 0.00 0.00 0.00 0.00 0.00 1.00 0.00 0.00 0.00 0.00 0.00 0.00 0.00 0.00 0.00 0.00 0.00 0.00 0.00 0.00 0.00 0.00 0.00 0.00 0.00 0.00 0.00 0.00 0.00 0.00 0.00 0.00 0.00 0.00 0.00 0.00 0.00 0.00 0.00 0.00 0.00 0.00 0.00 0.00 0.00 0.00 0.00 0.00 0.00 0.00 0.00 0.00 0.00 0.00 0.00 0.00 0.00 0.00 0.00 0.00 0.00 0.00 0.00 0.00 0.00 1.00 1.00 1.00 2.00 2.00 1.00 1.00 1.00 1.00 0.00 0.00 0.00 1.00 1.00 0.00 0.00 0.00 0.00 0.00 0.00 0.00 0.00 0.00 0.00 0.00 0.00 0.00 0.00 0.00 0.00 0.00 0.00 0.00 0.00 0.00 0.00 0.00 0.00 0.00 0.00 0.00 0.00 0.00 0.00 0.00 0.00 0.00 0.00 0.00 0.00 0.00 0.00 0.00 0.00 0.00 0.00 0.00 0.00 0.00 0.00 0.00 0.00 0.00 0.00 0.00 0.00 0.00 0.00 0.00 0.00 0.00 0.00 0.00 0.00 0.00 0.00 0.00 0.00 0.00 1.00 1.00 0.00 0.00 0.00 1.00 0.00 0.00 0.00 1.00 0.00 0.00 0.00 0.00 0.00 0.00 0.00 0.00 0.00 0.00 0.00 0.00 0.00 0.00 0.00 0.00 0.00 0.00 0.00 0.00 0.00 0.00 0.00 0.00 0.00 0.00 0.00 0.00 0.00 0.00 0.00 0.00 0.00 0.00 0.00 1.00 0.00 0.00 0.00 0.00 0.00 0.00 0.00 0.00 0.00 0.00 0.00 0.00 0.00 0.00 0.00 0.00 0.00 0.00 1.00 1.00 1.00 1.00 1.00 1.00 0.00 0.00 0.00 0.00 1.00 1.00 0.00 0.00 0.00 0.00 0.00 0.00 0.00 0.00 0.00 0.00 0.00 0.00 0.00 0.00 0.00 0.00 0.00 0.00 0.00 0.00 0.00 0.00 0.00 0.00 0.00 0.00 0.00 0.00 0.00 0.00 0.00 0.00 0.00 0.00 0.00 0.00 0.00 0.00 0.00 0.00 0.00 0.00 0.00 0.00 0.00 0.00 0.00 0.00 0.00 0.00 0.00 0.00 0.00 0.00 0.00 0.00 0.00 0.00 0.00 0.00 0.00 0.00 0.00 0.00 1.00 0.00 0.00 0.00 0.00 2.00 0.00 0.00 0.00 0.00 0.00 0.00 0.00 0.00 0.00 0.00 0.00 0.00 0.00 0.00 0.00 0.00 0.00 0.00 0.00 0.00 0.00 0.00 0.00 0.00 0.00 0.00 0.00 0.00 0.00 0.00 0.00 0.00 0.00 0.00 0.00 0.00 0.00 1.00 1.00 1.00 0.00 0.00 0.00 0.00 0.00 0.00 0.00 0.00 0.00 0.00 0.00 0.00 0.00 0.00 0.00 0.00 0.00 0.00 0.00 0.00 0.00 0.00 0.00 0.00 0.00 0.00 0.00 1.00 1.00 1.00 0.00 0.00 0.00 0.00 0.00 0.00 0.00 0.00 0.00 0.00 0.00 0.00 0.00 0.00 0.00 0.00 0.00 0.00 0.00 0.00 0.00 0.00 0.00 0.00 0.00 0.00 0.00 0.00 0.00 0.00 0.00 0.00 0.00 0.00 0.00 0.00 0.00 0.00 0.00 0.00 0.00 0.00 0.00 0.00 0.00 0.00 0.00 0.00 0.00 0.00 0.00 0.00 0.00 0.00 0.00 0.00 0.00 0.00 0.00 0.00 0.00 0.00 0.00 0.00 1.00 0.00 0.00 0.00 0.00 1.00 0.00 0.00 0.00 0.00 0.00 0.00 0.00 0.00 0.00 0.00 0.00 0.00 0.00 0.00 0.00 0.00 0.00 0.00 0.00 0.00 0.00 0.00 0.00 0.00 0.00 0.00 0.00 0.00 0.00 0.00 0.00 0.00 0.00 0.00 0.00 1.00 0.00 1.00 1.00 1.00 0.00 0.00 0.00 0.00 0.00 0.00 0.00 0.00 0.00 0.00 0.00 0.00 0.00 0.00 0.00 0.00 0.00 0.00 0.00 1.00 0.00 0.00 0.00 0.00 0.00 0.00 0.00 0.00 0.00 0.00 0.00 0.00 0.00 0.00 0.00 0.00 0.00 0.00 0.00 0.00 0.00 0.00 0.00 0.00 0.00 0.00 0.00 0.00 0.00 0.00 0.00 0.00 0.00 0.00 0.00 0.00 0.00 0.00 0.00 0.00 0.00 0.00 0.00 0.00 0.00 0.00 0.00 0.00 0.00 0.00 0.00 0.00 0.00 0.00 0.00 1.00 0.00 0.00 0.00 0.00 0.00 0.00 0.00 0.00 0.00 0.00 0.00 0.00 0.00 0.00 0.00 0.00 1.00 0.00 0.00 0.00 0.00 0.00 0.00 4.00 2.00 2.00 1.00 0.00 0.00 0.00 0.00 1.00 1.00 1.00 0.00 0.00 0.00 0.00 0.00 0.00 0.00 0.00 0.00 0.00 0.00 0.00 0.00 0.00 0.00 0.00 0.00 0.00 0.00 0.00 0.00 0.00 0.00 0.00 1.00 1.00 0.00 1.00 0.00 0.00 0.00 0.00 0.00 0.00 0.00 0.00 0.00 0.00 0.00 0.00 0.00 0.00 0.00 0.00 0.00 0.00 0.00 0.00 0.00 0.00 0.00 0.00 0.00 0.00 0.00 0.00 0.00 0.00 0.00 0.00 0.00 0.00 0.00 1.00 0.00 0.00 0.00 0.00 0.00 0.00 0.00 0.00 0.00 0.00 0.00 0.00 0.00 0.00 0.00 0.00 0.00 0.00 0.00 0.00 0.00 0.00 0.00 0.00 0.00 0.00 0.00 0.00 0.00 0.00 0.00 1.00 1.00 0.00 0.00 0.00 0.00 0.00 0.00 0.00 0.00 1.00 0.00 0.00 0.00 1.00 1.00 0.00 0.00 0.00 0.00 0.00 1.00 0.00 0.00 0.00 0.00 1.00 1.00 0.00 0.00 0.00 0.00 0.00 0.00 12.00 5.00 4.00 2.00 0.00 0.00 0.00 0.00 1.00 1.00 1.00 0.00 0.00 0.00 0.00 0.00 0.00 0.00 0.00 0.00 0.00 0.00 0.00 0.00 0.00 0.00 0.00 0.00 0.00 0.00 0.00 0.00 0.00 0.00 0.00 1.00 0.00 0.00 0.00 0.00 0.00 0.00 0.00 0.00 0.00 0.00 0.00 0.00 0.00 0.00 0.00 0.00 0.00 0.00 0.00 0.00 0.00 0.00 0.00 0.00 0.00 0.00 0.00 0.00 0.00 0.00 0.00 0.00 0.00 0.00 0.00 0.00 0.00 0.00 0.00 0.00 0.00 0.00 0.00 0.00 0.00 0.00 0.00 0.00 0.00 0.00 0.00 0.00 0.00 0.00 0.00 0.00 0.00 0.00 0.00 0.00 0.00 0.00 0.00 0.00 0.00 0.00 0.00 0.00 0.00 0.00 0.00 0.00 0.00 0.00 0.00 0.00 0.00 0.00 0.00 0.00 0.00 0.00 0.00 0.00 0.00 0.00 0.00 0.00 0.00 0.00 0.00 1.00 0.00 0.00 0.00 0.00 0.00 1.00 0.00 0.00 0.00 0.00 0.00 0.00 28.00 12.00 7.00 3.00 1.00 1.00 0.00 0.00 1.00 1.00 1.00 0.00 0.00 1.00 0.00 0.00 0.00 0.00 0.00 0.00 0.00 0.00 0.00 0.00 0.00 0.00 0.00 0.00 0.00 0.00 0.00 0.00 0.00 0.00 0.00 0.00 0.00 0.00 0.00 0.00 0.00 1.00 0.00 1.00 0.00 0.00 0.00 0.00 0.00 0.00 0.00 0.00 0.00 0.00 0.00 0.00 0.00 0.00 0.00 0.00 0.00 0.00 0.00 0.00 0.00 0.00 0.00 0.00 1.00 1.00 0.00 0.00 0.00 0.00 0.00 0.00 0.00 0.00 0.00 0.00 0.00 0.00 0.00 0.00 0.00 0.00 0.00 0.00 0.00 0.00 0.00 0.00 0.00 0.00 0.00 0.00 0.00 0.00 0.00 0.00 0.00 0.00 0.00 0.00 0.00 0.00 0.00 0.00 0.00 0.00 0.00 0.00 0.00 0.00 0.00 0.00 0.00 0.00 0.00 0.00 0.00 0.00 0.00 0.00 0.00 0.00 0.00 0.00 0.00 0.00 0.00 0.00 0.00 0.00 0.00 0.00 0.00 0.00 0.00 1.00 44.00 23.00 16.00 7.00 2.00 2.00 3.00 2.00 1.00 1.00 1.00 0.00 1.00 1.00 0.00 0.00 1.00 0.00 0.00 0.00 0.00 0.00 0.00 0.00 0.00 0.00 0.00 0.00 0.00 0.00 0.00 0.00 0.00 0.00 0.00 0.00 0.00 0.00 0.00 0.00 0.00 0.00 0.00 0.00 0.00 0.00 0.00 0.00 0.00 0.00 0.00 0.00 0.00 0.00 0.00 0.00 0.00 0.00 0.00 0.00 0.00 0.00 1.00 1.00 0.00 0.00 1.00 0.00 0.00 0.00 0.00 0.00 0.00 0.00 0.00 0.00 0.00 0.00 0.00 0.00 0.00 0.00 0.00 0.00 0.00 0.00 0.00 0.00 0.00 0.00 0.00 0.00 0.00 0.00 0.00 0.00 0.00 0.00 0.00 0.00 0.00 0.00 0.00 0.00 0.00 0.00 0.00 0.00 0.00 0.00 0.00 0.00 0.00 0.00 0.00 0.00 0.00 0.00 0.00 0.00 0.00 0.00 0.00 0.00 0.00 0.00 0.00 0.00 0.00 0.00 0.00 0.00 0.00 0.00 0.00 1.00 0.00 0.00 1.00 1.00 46.00 25.00 25.00 22.00 15.00 10.00 8.00 7.00 5.00 3.00 0.00 0.00 2.00 2.00 1.00 1.00 2.00 1.00 1.00 1.00 0.00 0.00 0.00 0.00 0.00 0.00 0.00 0.00 0.00 0.00 1.00 1.00 0.00 0.00 0.00 0.00 0.00 0.00 0.00 0.00 0.00 1.00 0.00 0.00 0.00 0.00 0.00 0.00 1.00 0.00 0.00 0.00 0.00 0.00 0.00 0.00 0.00 0.00 0.00 0.00 0.00 0.00 0.00 0.00 0.00 0.00 0.00 0.00 0.00 0.00 0.00 0.00 0.00 0.00 0.00 0.00 0.00 0.00 0.00 0.00 0.00 0.00 0.00 0.00 0.00 0.00 0.00 0.00 0.00 0.00 0.00 0.00 0.00 0.00 0.00 0.00 0.00 0.00 0.00 0.00 0.00 0.00 0.00 0.00 0.00 0.00 0.00 0.00 0.00 0.00 0.00 0.00 0.00 0.00 0.00 0.00 0.00 0.00 0.00 0.00 0.00 0.00 0.00 0.00 0.00 0.00 0.00 0.00 0.00 0.00 0.00 0.00 0.00 0.00 0.00 1.00 0.00 0.00 0.00 1.00 56.00 51.00 30.00 20.00 21.00 32.00 40.00 29.00 21.00 9.00 6.00 3.00 3.00 4.00 2.00 1.00 1.00 1.00 1.00 1.00 0.00 0.00 0.00 0.00 0.00 0.00 0.00 0.00 1.00 1.00 1.00 1.00 1.00 1.00 1.00 1.00 0.00 0.00 0.00 0.00 0.00 0.00 0.00 0.00 0.00 0.00 0.00 1.00 0.00 0.00 0.00 0.00 0.00 0.00 0.00 0.00 0.00 0.00 0.00 0.00 0.00 0.00 0.00 0.00 0.00 0.00 0.00 0.00 0.00 0.00 0.00 0.00 0.00 0.00 0.00 0.00 0.00 0.00 0.00 0.00 0.00 0.00 0.00 0.00 0.00 0.00 0.00 0.00 0.00 0.00 0.00 0.00 0.00 0.00 0.00 0.00 0.00 0.00 0.00 0.00 0.00 0.00 0.00 0.00 0.00 0.00 0.00 0.00 0.00 0.00 0.00 0.00 0.00 0.00 0.00 0.00 0.00 0.00 0.00 0.00 0.00 0.00 0.00 0.00 0.00 0.00 0.00 0.00 0.00 0.00 0.00 0.00 0.00 0.00 0.00 0.00 0.00 0.00 0.00 0.00 35.00 40.00 50.00 42.00 33.00 40.00 57.00 60.00 50.00 31.00 27.00 22.00 20.00 15.00 10.00 8.00 4.00 4.00 4.00 4.00 1.00 2.00 1.00 2.00 1.00 0.00 0.00 0.00 0.00 1.00 1.00 1.00 1.00 0.00 0.00 0.00 0.00 1.00 1.00 0.00 0.00 1.00 1.00 1.00 0.00 1.00 1.00 1.00 1.00 1.00 2.00 1.00 1.00 1.00 0.00 0.00 0.00 0.00 0.00 0.00 0.00 0.00 0.00 1.00 0.00 0.00 0.00 0.00 0.00 1.00 0.00 0.00 0.00 0.00 0.00 0.00 0.00 0.00 0.00 0.00 0.00 0.00 0.00 0.00 0.00 0.00 0.00 0.00 0.00 0.00 0.00 0.00 0.00 0.00 0.00 0.00 0.00 0.00 0.00 0.00 0.00 0.00 0.00 0.00 0.00 0.00 0.00 0.00 0.00 0.00 0.00 0.00 0.00 0.00 0.00 0.00 0.00 0.00 0.00 0.00 0.00 0.00 0.00 0.00 0.00 0.00 0.00 0.00 0.00 1.00 0.00 0.00 0.00 0.00 0.00 0.00 0.00 0.00 0.00 0.00 56.00 42.00 48.00 62.00 62.00 55.00 63.00 82.00 75.00 60.00 53.00 51.00 50.00 40.00 32.00 27.00 20.00 17.00 12.00 14.00 8.00 8.00 6.00 5.00 3.00 3.00 2.00 1.00 1.00 1.00 1.00 1.00 1.00 0.00 0.00 0.00 1.00 1.00 1.00 0.00 1.00 1.00 1.00 1.00 1.00 1.00 2.00 2.00 2.00 1.00 2.00 2.00 1.00 1.00 1.00 1.00 1.00 0.00 1.00 1.00 0.00 0.00 1.00 1.00 0.00 0.00 0.00 0.00 0.00 0.00 0.00 0.00 0.00 0.00 0.00 0.00 0.00 0.00 0.00 0.00 0.00 0.00 0.00 0.00 0.00 0.00 0.00 0.00 0.00 0.00 0.00 0.00 0.00 0.00 0.00 0.00 0.00 0.00 0.00 0.00 0.00 0.00 0.00 0.00 0.00 0.00 0.00 0.00 0.00 0.00 0.00 0.00 0.00 0.00 0.00 0.00 0.00 0.00 0.00 0.00 0.00 0.00 0.00 0.00 0.00 0.00 0.00 0.00 0.00 1.00 0.00 0.00 0.00 0.00 0.00 0.00 0.00 0.00 0.00 0.00 96.00 75.00 42.00 54.00 77.00 85.00 90.00 98.00 90.00 86.00 75.00 71.00 72.00 66.00 54.00 46.00 43.00 38.00 31.00 27.00 23.00 19.00 18.00 18.00 21.00 25.00 19.00 12.00 10.00 7.00 3.00 3.00 4.00 4.00 2.00 1.00 0.00 1.00 1.00 1.00 1.00 2.00 1.00 1.00 1.00 1.00 2.00 1.00 2.00 2.00 3.00 3.00 2.00 1.00 2.00 2.00 2.00 1.00 1.00 1.00 1.00 1.00 0.00 1.00 1.00 1.00 2.00 2.00 2.00 1.00 1.00 1.00 1.00 0.00 0.00 0.00 0.00 0.00 0.00 0.00 0.00 0.00 0.00 0.00 0.00 0.00 0.00 0.00 0.00 0.00 0.00 0.00 0.00 0.00 0.00 0.00 0.00 0.00 0.00 0.00 0.00 0.00 0.00 0.00 0.00 0.00 1.00 1.00 0.00 0.00 0.00 0.00 0.00 0.00 0.00 0.00 1.00 0.00 0.00 0.00 0.00 0.00 0.00 0.00 0.00 0.00 0.00 0.00 0.00 0.00 0.00 0.00 0.00 0.00 0.00 0.00 0.00 0.00 0.00 0.00 88.00 101.00 86.00 48.00 43.00 73.00 107.00 127.00 130.00 135.00 124.00 122.00 123.00 122.00 117.00 100.00 82.00 72.00 56.00 42.00 41.00 31.00 33.00 37.00 43.00 44.00 38.00 37.00 39.00 39.00 33.00 23.00 16.00 9.00 5.00 4.00 5.00 5.00 4.00 2.00 1.00 2.00 1.00 1.00 2.00 3.00 5.00 6.00 5.00 4.00 3.00 5.00 3.00 4.00 2.00 2.00 2.00 1.00 1.00 2.00 5.00 4.00 2.00 2.00 2.00 3.00 2.00 2.00 2.00 1.00 2.00 1.00 1.00 1.00 2.00 3.00 2.00 1.00 1.00 2.00 1.00 1.00 1.00 1.00 0.00 0.00 0.00 0.00 0.00 0.00 0.00 0.00 0.00 0.00 1.00 0.00 0.00 0.00 0.00 0.00 0.00 0.00 0.00 0.00 0.00 0.00 0.00 0.00 0.00 0.00 0.00 0.00 0.00 1.00 0.00 0.00 0.00 0.00 0.00 0.00 0.00 0.00 0.00 0.00 0.00 0.00 0.00 0.00 0.00 0.00 0.00 0.00 0.00 0.00 0.00 0.00 0.00 0.00 0.00 0.00 73.00 96.00 106.00 72.00 39.00 51.00 85.00 97.00 100.00 106.00 110.00 122.00 137.00 143.00 148.00 149.00 140.00 134.00 117.00 96.00 111.00 111.00 106.00 101.00 95.00 93.00 88.00 82.00 83.00 80.00 60.00 34.00 22.00 19.00 18.00 17.00 12.00 11.00 10.00 10.00 12.00 11.00 9.00 8.00 6.00 5.00 10.00 13.00 11.00 14.00 17.00 18.00 19.00 25.00 29.00 32.00 35.00 29.00 38.00 28.00 31.00 31.00 27.00 23.00 22.00 22.00 18.00 19.00 20.00 17.00 10.00 4.00 4.00 3.00 5.00 5.00 5.00 5.00 3.00 2.00 2.00 3.00 2.00 3.00 2.00 2.00 1.00 1.00 0.00 0.00 0.00 0.00 0.00 1.00 0.00 0.00 0.00 0.00 0.00 0.00 0.00 0.00 0.00 0.00 0.00 0.00 0.00 0.00 0.00 0.00 0.00 0.00 0.00 0.00 0.00 0.00 0.00 0.00 0.00 0.00 0.00 0.00 0.00 0.00 0.00 0.00 0.00 0.00 0.00 0.00 0.00 0.00 0.00 0.00 0.00 0.00 0.00 0.00 0.00 0.00 70.00 92.00 112.00 90.00 52.00 38.00 53.00 74.00 93.00 100.00 106.00 109.00 122.00 129.00 139.00 144.00 136.00 146.00 139.00 126.00 160.00 157.00 156.00 157.00 150.00 138.00 130.00 125.00 123.00 124.00 113.00 83.00 51.00 31.00 36.00 45.00 31.00 27.00 20.00 17.00 23.00 30.00 23.00 17.00 16.00 7.00 15.00 25.00 20.00 23.00 22.00 18.00 20.00 30.00 33.00 33.00 38.00 34.00 35.00 25.00 32.00 50.00 59.00 29.00 40.00 45.00 53.00 59.00 45.00 56.00 52.00 47.00 46.00 49.00 55.00 45.00 33.00 14.00 8.00 5.00 4.00 6.00 4.00 3.00 2.00 3.00 2.00 2.00 0.00 0.00 0.00 0.00 0.00 1.00 1.00 1.00 1.00 1.00 1.00 1.00 1.00 1.00 0.00 1.00 2.00 1.00 1.00 1.00 1.00 2.00 1.00 0.00 0.00 0.00 0.00 0.00 0.00 0.00 0.00 0.00 0.00 0.00 0.00 0.00 0.00 0.00 0.00 0.00 0.00 0.00 0.00 0.00 0.00 0.00 0.00 0.00 0.00 0.00 0.00 0.00 66.00 90.00 111.00 102.00 66.00 39.00 47.00 80.00 106.00 113.00 115.00 108.00 110.00 113.00 121.00 124.00 114.00 120.00 106.00 111.00 141.00 144.00 146.00 143.00 143.00 153.00 156.00 143.00 140.00 153.00 153.00 127.00 96.00 71.00 72.00 95.00 72.00 63.00 26.00 27.00 43.00 51.00 34.00 16.00 23.00 4.00 25.00 40.00 24.00 29.00 17.00 34.00 40.00 54.00 49.00 56.00 82.00 72.00 63.00 89.00 93.00 104.00 94.00 41.00 63.00 123.00 110.00 96.00 64.00 66.00 69.00 57.00 50.00 53.00 66.00 72.00 81.00 66.00 64.00 58.00 38.00 26.00 12.00 7.00 8.00 6.00 5.00 2.00 2.00 2.00 2.00 1.00 2.00 2.00 3.00 1.00 0.00 0.00 0.00 0.00 0.00 0.00 0.00 1.00 1.00 0.00 1.00 1.00 1.00 2.00 1.00 1.00 1.00 0.00 1.00 1.00 1.00 0.00 0.00 0.00 0.00 0.00 0.00 0.00 0.00 0.00 0.00 0.00 0.00 0.00 0.00 0.00 0.00 0.00 0.00 0.00 0.00 0.00 0.00 0.00 60.00 89.00 107.00 108.00 75.00 41.00 47.00 85.00 116.00 125.00 126.00 115.00 110.00 108.00 114.00 114.00 104.00 110.00 87.00 99.00 123.00 125.00 127.00 124.00 133.00 153.00 158.00 144.00 144.00 157.00 163.00 165.00 168.00 152.00 129.00 142.00 76.00 52.00 57.00 55.00 61.00 52.00 56.00 31.00 43.00 18.00 23.00 60.00 44.00 59.00 81.00 106.00 91.00 102.00 123.00 145.00 162.00 179.00 212.00 202.00 139.00 137.00 89.00 136.00 214.00 212.00 194.00 183.00 192.00 188.00 175.00 164.00 152.00 134.00 121.00 90.00 82.00 65.00 76.00 71.00 58.00 56.00 40.00 32.00 12.00 11.00 12.00 11.00 4.00 3.00 2.00 1.00 3.00 4.00 4.00 1.00 0.00 1.00 0.00 1.00 0.00 0.00 0.00 0.00 0.00 0.00 0.00 0.00 1.00 1.00 1.00 1.00 0.00 1.00 1.00 1.00 1.00 0.00 0.00 0.00 0.00 0.00 0.00 0.00 0.00 0.00 0.00 0.00 0.00 0.00 0.00 0.00 0.00 0.00 0.00 0.00 0.00 0.00 0.00 0.00 59.00 87.00 101.00 111.00 82.00 43.00 40.00 73.00 109.00 128.00 130.00 121.00 115.00 113.00 117.00 116.00 107.00 110.00 84.00 92.00 104.00 101.00 95.00 106.00 133.00 147.00 144.00 140.00 147.00 153.00 151.00 161.00 182.00 174.00 141.00 129.00 73.00 44.00 54.00 75.00 93.00 111.00 129.00 126.00 145.00 105.00 116.00 120.00 106.00 131.00 154.00 171.00 170.00 204.00 212.00 205.00 212.00 242.00 224.00 179.00 116.00 79.00 139.00 220.00 249.00 230.00 226.00 230.00 231.00 227.00 227.00 224.00 223.00 210.00 209.00 203.00 202.00 153.00 121.00 92.00 81.00 71.00 48.00 45.00 43.00 17.00 18.00 13.00 5.00 4.00 3.00 3.00 2.00 2.00 3.00 3.00 2.00 1.00 1.00 2.00 1.00 1.00 1.00 1.00 1.00 1.00 1.00 1.00 3.00 3.00 1.00 1.00 1.00 1.00 1.00 1.00 0.00 1.00 0.00 1.00 1.00 0.00 0.00 1.00 1.00 1.00 1.00 0.00 0.00 0.00 0.00 0.00 1.00 0.00 0.00 0.00 0.00 1.00 0.00 0.00 60.00 84.00 96.00 113.00 90.00 49.00 38.00 62.00 97.00 126.00 129.00 124.00 118.00 116.00 121.00 121.00 110.00 103.00 75.00 78.00 86.00 90.00 95.00 112.00 141.00 151.00 147.00 145.00 150.00 152.00 149.00 151.00 162.00 168.00 166.00 151.00 102.00 56.00 54.00 84.00 101.00 121.00 139.00 144.00 168.00 187.00 206.00 201.00 201.00 205.00 209.00 213.00 224.00 232.00 231.00 224.00 227.00 225.00 181.00 142.00 97.00 161.00 210.00 228.00 212.00 208.00 214.00 224.00 231.00 228.00 226.00 219.00 211.00 224.00 240.00 233.00 211.00 152.00 116.00 94.00 85.00 72.00 51.00 57.00 52.00 17.00 25.00 34.00 47.00 48.00 34.00 15.00 10.00 9.00 14.00 8.00 7.00 11.00 11.00 5.00 4.00 2.00 1.00 1.00 1.00 0.00 1.00 1.00 2.00 1.00 0.00 0.00 1.00 1.00 0.00 1.00 0.00 1.00 0.00 1.00 2.00 1.00 1.00 2.00 2.00 1.00 1.00 1.00 1.00 0.00 0.00 1.00 1.00 1.00 1.00 1.00 1.00 1.00 1.00 0.00 59.00 82.00 97.00 120.00 97.00 50.00 39.00 66.00 99.00 128.00 129.00 123.00 116.00 115.00 119.00 119.00 113.00 104.00 81.00 82.00 91.00 108.00 126.00 134.00 149.00 156.00 154.00 151.00 148.00 147.00 150.00 154.00 151.00 152.00 164.00 167.00 165.00 152.00 128.00 112.00 105.00 110.00 129.00 135.00 159.00 191.00 226.00 222.00 227.00 224.00 225.00 225.00 218.00 198.00 196.00 205.00 231.00 227.00 193.00 188.00 208.00 220.00 206.00 186.00 167.00 185.00 191.00 198.00 205.00 214.00 228.00 226.00 210.00 209.00 168.00 143.00 126.00 119.00 97.00 77.00 66.00 78.00 77.00 55.00 80.00 22.00 59.00 71.00 61.00 64.00 51.00 35.00 22.00 19.00 15.00 10.00 10.00 12.00 11.00 6.00 6.00 3.00 3.00 2.00 4.00 4.00 3.00 1.00 2.00 1.00 0.00 0.00 1.00 0.00 0.00 0.00 0.00 1.00 1.00 1.00 2.00 2.00 2.00 2.00 2.00 1.00 1.00 1.00 1.00 1.00 1.00 2.00 2.00 1.00 1.00 1.00 1.00 1.00 1.00 0.00 52.00 79.00 104.00 131.00 106.00 53.00 39.00 68.00 103.00 128.00 126.00 119.00 112.00 112.00 115.00 117.00 123.00 121.00 111.00 112.00 114.00 128.00 141.00 144.00 151.00 153.00 150.00 146.00 143.00 142.00 148.00 156.00 152.00 148.00 152.00 162.00 175.00 178.00 183.00 185.00 192.00 186.00 168.00 149.00 153.00 180.00 199.00 197.00 193.00 186.00 183.00 187.00 184.00 186.00 187.00 185.00 188.00 194.00 201.00 195.00 173.00 177.00 173.00 162.00 151.00 163.00 171.00 189.00 197.00 190.00 186.00 185.00 169.00 146.00 137.00 139.00 126.00 140.00 169.00 195.00 214.00 221.00 180.00 140.00 113.00 55.00 66.00 78.00 61.00 74.00 58.00 35.00 20.00 21.00 21.00 21.00 15.00 8.00 8.00 7.00 8.00 4.00 5.00 3.00 7.00 7.00 4.00 0.00 2.00 1.00 1.00 1.00 1.00 0.00 0.00 0.00 1.00 1.00 0.00 0.00 1.00 1.00 1.00 2.00 1.00 1.00 1.00 2.00 2.00 2.00 1.00 1.00 1.00 1.00 1.00 1.00 1.00 1.00 1.00 1.00 48.00 81.00 113.00 139.00 113.00 61.00 43.00 51.00 80.00 107.00 114.00 112.00 110.00 115.00 122.00 125.00 128.00 125.00 126.00 132.00 131.00 134.00 139.00 146.00 150.00 149.00 146.00 146.00 145.00 144.00 151.00 157.00 153.00 149.00 151.00 156.00 165.00 171.00 178.00 184.00 192.00 197.00 201.00 190.00 183.00 188.00 185.00 182.00 181.00 186.00 185.00 184.00 175.00 175.00 170.00 155.00 156.00 189.00 188.00 168.00 139.00 117.00 95.00 85.00 76.00 78.00 87.00 88.00 105.00 131.00 156.00 181.00 188.00 215.00 236.00 242.00 231.00 213.00 201.00 203.00 199.00 182.00 188.00 187.00 156.00 119.00 88.00 99.00 51.00 59.00 60.00 48.00 45.00 57.00 53.00 44.00 33.00 18.00 10.00 11.00 9.00 3.00 5.00 4.00 8.00 6.00 6.00 1.00 3.00 2.00 2.00 1.00 1.00 2.00 1.00 0.00 1.00 1.00 1.00 0.00 1.00 1.00 1.00 1.00 1.00 1.00 1.00 1.00 1.00 1.00 1.00 0.00 1.00 0.00 0.00 0.00 0.00 1.00 1.00 1.00 55.00 87.00 117.00 128.00 104.00 70.00 50.00 32.00 35.00 53.00 74.00 90.00 104.00 120.00 129.00 125.00 118.00 113.00 116.00 132.00 136.00 138.00 140.00 143.00 144.00 141.00 143.00 150.00 149.00 148.00 153.00 157.00 156.00 153.00 154.00 155.00 161.00 167.00 168.00 169.00 171.00 170.00 177.00 176.00 176.00 182.00 186.00 184.00 190.00 189.00 186.00 170.00 155.00 162.00 159.00 161.00 144.00 120.00 101.00 86.00 82.00 72.00 50.00 46.00 43.00 58.00 63.00 49.00 46.00 54.00 60.00 99.00 138.00 179.00 211.00 220.00 211.00 213.00 199.00 203.00 192.00 183.00 186.00 190.00 175.00 143.00 118.00 104.00 59.00 55.00 59.00 54.00 78.00 77.00 60.00 55.00 48.00 34.00 26.00 22.00 22.00 6.00 8.00 4.00 8.00 6.00 10.00 4.00 5.00 5.00 6.00 7.00 4.00 4.00 2.00 1.00 1.00 0.00 1.00 1.00 0.00 0.00 0.00 0.00 1.00 1.00 1.00 1.00 0.00 1.00 1.00 0.00 0.00 0.00 0.00 0.00 0.00 0.00 0.00 1.00 72.00 98.00 112.00 95.00 71.00 63.00 61.00 56.00 58.00 67.00 56.00 53.00 81.00 117.00 127.00 122.00 114.00 114.00 121.00 134.00 138.00 139.00 138.00 139.00 139.00 137.00 141.00 149.00 149.00 148.00 151.00 156.00 162.00 160.00 160.00 155.00 157.00 164.00 167.00 166.00 173.00 171.00 162.00 159.00 164.00 174.00 176.00 175.00 177.00 169.00 164.00 156.00 147.00 152.00 140.00 110.00 86.00 77.00 56.00 57.00 85.00 107.00 119.00 126.00 140.00 145.00 156.00 161.00 157.00 148.00 124.00 104.00 72.00 77.00 107.00 154.00 194.00 213.00 212.00 209.00 207.00 194.00 198.00 196.00 190.00 175.00 162.00 131.00 89.00 50.00 49.00 44.00 71.00 71.00 58.00 59.00 55.00 36.00 31.00 25.00 23.00 8.00 12.00 6.00 8.00 4.00 6.00 3.00 4.00 5.00 7.00 9.00 7.00 5.00 4.00 2.00 1.00 0.00 1.00 1.00 0.00 0.00 1.00 0.00 1.00 1.00 1.00 2.00 1.00 1.00 0.00 0.00 0.00 0.00 0.00 0.00 0.00 0.00 0.00 1.00 88.00 110.00 96.00 58.00 37.00 46.00 60.00 86.00 110.00 123.00 100.00 52.00 49.00 92.00 116.00 118.00 117.00 121.00 126.00 137.00 138.00 140.00 138.00 140.00 141.00 141.00 147.00 151.00 148.00 146.00 149.00 155.00 161.00 162.00 160.00 156.00 156.00 158.00 162.00 167.00 187.00 178.00 168.00 167.00 162.00 172.00 175.00 175.00 168.00 170.00 167.00 152.00 119.00 96.00 78.00 65.00 48.00 57.00 80.00 107.00 131.00 157.00 172.00 205.00 217.00 219.00 215.00 215.00 216.00 216.00 209.00 193.00 154.00 119.00 64.00 82.00 148.00 182.00 228.00 225.00 213.00 201.00 205.00 197.00 200.00 183.00 179.00 162.00 149.00 96.00 58.00 42.00 61.00 58.00 51.00 60.00 53.00 31.00 30.00 26.00 20.00 9.00 12.00 6.00 9.00 6.00 6.00 3.00 5.00 6.00 10.00 10.00 9.00 6.00 5.00 4.00 2.00 4.00 2.00 2.00 1.00 0.00 0.00 0.00 0.00 1.00 1.00 1.00 0.00 0.00 0.00 0.00 0.00 0.00 1.00 0.00 1.00 1.00 0.00 1.00 94.00 92.00 64.00 43.00 39.00 43.00 57.00 98.00 141.00 166.00 148.00 83.00 46.00 74.00 112.00 120.00 126.00 125.00 126.00 133.00 137.00 140.00 137.00 138.00 140.00 143.00 149.00 150.00 149.00 147.00 148.00 151.00 153.00 158.00 159.00 157.00 157.00 155.00 157.00 162.00 178.00 169.00 159.00 155.00 152.00 166.00 173.00 169.00 154.00 142.00 112.00 92.00 66.00 62.00 61.00 91.00 114.00 134.00 161.00 176.00 202.00 217.00 224.00 224.00 223.00 221.00 219.00 220.00 222.00 221.00 216.00 214.00 216.00 207.00 171.00 122.00 73.00 82.00 142.00 176.00 213.00 223.00 211.00 198.00 198.00 187.00 178.00 174.00 181.00 135.00 93.00 61.00 78.00 69.00 57.00 73.00 54.00 34.00 33.00 28.00 23.00 17.00 15.00 9.00 10.00 8.00 8.00 4.00 5.00 6.00 10.00 10.00 10.00 6.00 6.00 5.00 3.00 5.00 3.00 3.00 1.00 0.00 0.00 0.00 0.00 0.00 1.00 0.00 0.00 0.00 0.00 0.00 0.00 0.00 1.00 1.00 0.00 1.00 0.00 0.00 87.00 66.00 46.00 43.00 47.00 50.00 70.00 108.00 150.00 179.00 163.00 98.00 50.00 70.00 107.00 119.00 124.00 121.00 122.00 132.00 138.00 138.00 135.00 139.00 144.00 144.00 144.00 146.00 149.00 149.00 149.00 151.00 153.00 160.00 163.00 162.00 162.00 157.00 154.00 157.00 161.00 150.00 142.00 134.00 142.00 147.00 135.00 115.00 95.00 72.00 57.00 66.00 88.00 125.00 156.00 172.00 196.00 207.00 215.00 215.00 220.00 230.00 232.00 228.00 225.00 224.00 224.00 227.00 229.00 231.00 229.00 231.00 234.00 238.00 242.00 235.00 209.00 164.00 108.00 62.00 122.00 182.00 207.00 206.00 200.00 190.00 194.00 191.00 195.00 161.00 133.00 92.00 97.00 91.00 74.00 82.00 59.00 38.00 37.00 32.00 28.00 23.00 17.00 13.00 12.00 11.00 8.00 6.00 6.00 6.00 6.00 7.00 5.00 5.00 6.00 5.00 4.00 5.00 4.00 4.00 2.00 1.00 1.00 1.00 1.00 1.00 0.00 0.00 1.00 0.00 0.00 0.00 0.00 0.00 0.00 0.00 0.00 0.00 0.00 0.00 62.00 53.00 59.00 56.00 48.00 52.00 73.00 102.00 138.00 163.00 135.00 73.00 53.00 81.00 103.00 117.00 120.00 119.00 124.00 134.00 139.00 138.00 139.00 141.00 143.00 145.00 144.00 145.00 149.00 151.00 152.00 153.00 153.00 158.00 164.00 163.00 162.00 155.00 152.00 156.00 157.00 145.00 144.00 115.00 108.00 99.00 82.00 64.00 67.00 96.00 131.00 152.00 171.00 190.00 218.00 229.00 231.00 222.00 226.00 232.00 236.00 237.00 236.00 232.00 235.00 238.00 241.00 243.00 244.00 245.00 244.00 239.00 236.00 242.00 246.00 241.00 227.00 217.00 187.00 120.00 63.00 116.00 158.00 184.00 194.00 191.00 193.00 195.00 195.00 180.00 150.00 109.00 105.00 93.00 79.00 74.00 58.00 45.00 51.00 37.00 30.00 21.00 16.00 12.00 11.00 10.00 8.00 6.00 8.00 8.00 8.00 9.00 6.00 5.00 6.00 5.00 4.00 5.00 4.00 4.00 2.00 2.00 1.00 1.00 1.00 1.00 0.00 0.00 0.00 0.00 0.00 0.00 0.00 1.00 0.00 0.00 0.00 1.00 1.00 0.00 46.00 60.00 78.00 74.00 55.00 40.00 41.00 71.00 103.00 111.00 75.00 52.00 73.00 101.00 110.00 119.00 124.00 126.00 129.00 132.00 131.00 130.00 132.00 132.00 137.00 144.00 145.00 145.00 144.00 146.00 147.00 144.00 145.00 149.00 154.00 154.00 152.00 150.00 145.00 150.00 144.00 129.00 106.00 77.00 65.00 58.00 78.00 126.00 155.00 173.00 203.00 230.00 246.00 247.00 246.00 244.00 243.00 237.00 233.00 239.00 241.00 234.00 232.00 233.00 239.00 244.00 244.00 243.00 244.00 244.00 244.00 239.00 230.00 233.00 234.00 236.00 243.00 242.00 236.00 207.00 167.00 112.00 71.00 130.00 187.00 205.00 202.00 197.00 196.00 187.00 173.00 135.00 120.00 84.00 76.00 65.00 53.00 53.00 60.00 40.00 34.00 22.00 19.00 14.00 11.00 9.00 9.00 7.00 9.00 9.00 10.00 10.00 6.00 4.00 5.00 5.00 4.00 5.00 4.00 4.00 2.00 2.00 1.00 0.00 1.00 1.00 0.00 0.00 1.00 1.00 1.00 1.00 1.00 1.00 1.00 1.00 0.00 1.00 0.00 1.00 62.00 76.00 86.00 89.00 77.00 55.00 42.00 45.00 53.00 46.00 56.00 83.00 99.00 112.00 118.00 122.00 125.00 129.00 131.00 129.00 120.00 115.00 118.00 125.00 136.00 141.00 142.00 142.00 137.00 133.00 133.00 135.00 143.00 143.00 142.00 139.00 139.00 139.00 123.00 112.00 95.00 87.00 85.00 104.00 121.00 144.00 168.00 197.00 221.00 235.00 244.00 249.00 254.00 253.00 249.00 240.00 235.00 236.00 233.00 230.00 237.00 233.00 229.00 233.00 239.00 242.00 240.00 239.00 239.00 241.00 241.00 233.00 224.00 225.00 230.00 230.00 231.00 236.00 239.00 227.00 216.00 170.00 121.00 68.00 114.00 186.00 207.00 197.00 193.00 187.00 186.00 157.00 129.00 87.00 68.00 63.00 54.00 62.00 67.00 43.00 33.00 20.00 20.00 15.00 13.00 9.00 9.00 8.00 9.00 9.00 8.00 7.00 5.00 2.00 3.00 3.00 4.00 3.00 4.00 3.00 2.00 0.00 0.00 0.00 0.00 1.00 0.00 0.00 1.00 1.00 1.00 0.00 1.00 0.00 1.00 1.00 0.00 1.00 0.00 1.00 70.00 76.00 87.00 100.00 100.00 80.00 60.00 47.00 51.00 68.00 85.00 89.00 98.00 109.00 117.00 121.00 122.00 126.00 129.00 128.00 122.00 119.00 125.00 132.00 136.00 135.00 136.00 138.00 136.00 129.00 128.00 138.00 143.00 142.00 138.00 130.00 116.00 102.00 84.00 76.00 78.00 103.00 126.00 168.00 192.00 210.00 228.00 241.00 246.00 245.00 237.00 239.00 241.00 242.00 236.00 231.00 227.00 223.00 221.00 220.00 228.00 232.00 232.00 238.00 241.00 242.00 240.00 240.00 239.00 239.00 239.00 229.00 222.00 226.00 230.00 230.00 227.00 229.00 232.00 237.00 236.00 233.00 201.00 153.00 72.00 103.00 165.00 188.00 180.00 177.00 181.00 173.00 153.00 102.00 82.00 58.00 53.00 65.00 60.00 33.00 22.00 16.00 16.00 13.00 12.00 10.00 8.00 8.00 9.00 9.00 9.00 10.00 6.00 3.00 3.00 2.00 2.00 2.00 2.00 2.00 1.00 0.00 0.00 0.00 0.00 0.00 1.00 1.00 1.00 1.00 1.00 1.00 1.00 1.00 1.00 2.00 1.00 1.00 1.00 1.00 61.00 77.00 96.00 109.00 107.00 88.00 73.00 65.00 68.00 81.00 90.00 95.00 99.00 108.00 116.00 121.00 121.00 125.00 127.00 127.00 126.00 127.00 135.00 142.00 140.00 136.00 136.00 136.00 134.00 131.00 130.00 139.00 143.00 146.00 142.00 132.00 105.00 83.00 65.00 70.00 86.00 122.00 149.00 190.00 213.00 220.00 230.00 239.00 237.00 228.00 218.00 212.00 215.00 221.00 225.00 228.00 226.00 220.00 214.00 208.00 208.00 212.00 214.00 218.00 221.00 220.00 217.00 213.00 212.00 216.00 212.00 211.00 214.00 224.00 226.00 230.00 226.00 226.00 230.00 234.00 239.00 248.00 237.00 209.00 153.00 72.00 93.00 150.00 185.00 175.00 171.00 182.00 173.00 137.00 116.00 71.00 56.00 63.00 52.00 31.00 20.00 12.00 14.00 11.00 10.00 11.00 7.00 8.00 8.00 8.00 8.00 9.00 6.00 3.00 2.00 2.00 2.00 1.00 1.00 1.00 1.00 1.00 1.00 1.00 1.00 1.00 1.00 2.00 2.00 2.00 2.00 1.00 1.00 2.00 2.00 3.00 2.00 1.00 1.00 2.00 47.00 74.00 96.00 103.00 91.00 76.00 7